<?xml version="1.0" encoding="UTF-8"?>

<!-- generated on Wed Jan 22 14:28:20 2020 by Eclipse SUMO Version 1.2.0
<configuration xmlns:xsi="http://www.w3.org/2001/XMLSchema-instance" xsi:noNamespaceSchemaLocation="http://sumo.dlr.de/xsd/sumoConfiguration.xsd">

    <input>
        <net-file value="/home/azlaans/aienvs/aienvs/Sumo/../../scenarios/Sumo/four_intersection/four.net.xml"/>
        <route-files value="/home/azlaans/aienvs/aienvs/Sumo/../../scenarios/Sumo/four_intersection/16998_routes.rou.xml"/>
    </input>

    <output>
        <tripinfo-output value="/home/azlaans/aienvs/aienvs/Sumo/../../test/Stats/single/tripinfo.xml"/>
    </output>

    <time>
        <begin value="0"/>
    </time>

    <report>
        <verbose value="true"/>
        <no-step-log value="true"/>
    </report>

    <traci_server>
        <remote-port value="16998"/>
    </traci_server>

    <random_number>
        <seed value="9675"/>
    </random_number>

</configuration>
-->

<tripinfos xmlns:xsi="http://www.w3.org/2001/XMLSchema-instance" xsi:noNamespaceSchemaLocation="http://sumo.dlr.de/xsd/tripinfo_file.xsd">
    <tripinfo id="1_8" depart="8.00" departLane="61_0" departPos="5.10" departSpeed="0.00" departDelay="0.00" arrival="116.00" arrivalLane="310_0" arrivalPos="492.80" arrivalSpeed="10.67" duration="108.00" routeLength="1494.90" waitingTime="0.00" waitingCount="0" stopTime="0.00" timeLoss="8.96" rerouteNo="0" devices="tripinfo_1_8" vType="DEFAULT_VEHTYPE" speedFactor="0.98" vaporized=""/>
    <tripinfo id="2_67" depart="67.00" departLane="92_0" departPos="5.10" departSpeed="0.00" departDelay="0.00" arrival="184.00" arrivalLane="05_0" arrivalPos="492.80" arrivalSpeed="11.13" duration="117.00" routeLength="1494.90" waitingTime="0.00" waitingCount="0" stopTime="0.00" timeLoss="10.53" rerouteNo="0" devices="tripinfo_2_67" vType="DEFAULT_VEHTYPE" speedFactor="1.09" vaporized=""/>
    <tripinfo id="5_181" depart="181.00" departLane="61_0" departPos="5.10" departSpeed="0.00" departDelay="0.00" arrival="287.00" arrivalLane="310_0" arrivalPos="492.80" arrivalSpeed="10.83" duration="106.00" routeLength="1494.90" waitingTime="0.00" waitingCount="0" stopTime="0.00" timeLoss="12.12" rerouteNo="0" devices="tripinfo_5_181" vType="DEFAULT_VEHTYPE" speedFactor="1.03" vaporized=""/>
    <tripinfo id="6_201" depart="201.00" departLane="50_0" departPos="5.10" departSpeed="0.00" departDelay="0.00" arrival="303.00" arrivalLane="29_0" arrivalPos="492.80" arrivalSpeed="11.20" duration="102.00" routeLength="1494.90" waitingTime="0.00" waitingCount="0" stopTime="0.00" timeLoss="8.55" rerouteNo="0" devices="tripinfo_6_201" vType="DEFAULT_VEHTYPE" speedFactor="1.03" vaporized=""/>
    <tripinfo id="10_263" depart="263.00" departLane="61_0" departPos="5.10" departSpeed="0.00" departDelay="0.00" arrival="386.00" arrivalLane="310_0" arrivalPos="492.80" arrivalSpeed="9.69" duration="123.00" routeLength="1494.90" waitingTime="0.00" waitingCount="0" stopTime="0.00" timeLoss="15.51" rerouteNo="0" devices="tripinfo_10_263" vType="DEFAULT_VEHTYPE" speedFactor="0.90" vaporized=""/>
    <tripinfo id="9_246" depart="246.00" departLane="113_0" departPos="5.10" departSpeed="0.00" departDelay="0.00" arrival="507.00" arrivalLane="28_0" arrivalPos="492.80" arrivalSpeed="10.01" duration="261.00" routeLength="1494.90" waitingTime="100.00" waitingCount="1" stopTime="0.00" timeLoss="114.58" rerouteNo="0" devices="tripinfo_9_246" vType="DEFAULT_VEHTYPE" speedFactor="0.92" vaporized=""/>
    <tripinfo id="11_274" depart="274.00" departLane="113_0" departPos="5.10" departSpeed="0.00" departDelay="0.00" arrival="509.00" arrivalLane="28_0" arrivalPos="492.80" arrivalSpeed="10.54" duration="235.00" routeLength="1494.90" waitingTime="89.00" waitingCount="2" stopTime="0.00" timeLoss="108.19" rerouteNo="0" devices="tripinfo_11_274" vType="DEFAULT_VEHTYPE" speedFactor="1.06" vaporized=""/>
    <tripinfo id="8_223" depart="223.00" departLane="82_0" departPos="5.10" departSpeed="0.00" departDelay="0.00" arrival="513.00" arrivalLane="311_0" arrivalPos="492.80" arrivalSpeed="17.75" duration="290.00" routeLength="1494.90" waitingTime="195.00" waitingCount="1" stopTime="0.00" timeLoss="209.08" rerouteNo="0" devices="tripinfo_8_223" vType="DEFAULT_VEHTYPE" speedFactor="0.96" vaporized=""/>
    <tripinfo id="15_494" depart="494.00" departLane="50_0" departPos="5.10" departSpeed="0.00" departDelay="0.00" arrival="599.00" arrivalLane="29_0" arrivalPos="492.80" arrivalSpeed="10.77" duration="105.00" routeLength="1494.90" waitingTime="0.00" waitingCount="0" stopTime="0.00" timeLoss="8.62" rerouteNo="0" devices="tripinfo_15_494" vType="DEFAULT_VEHTYPE" speedFactor="1.00" vaporized=""/>
    <tripinfo id="16_502" depart="502.00" departLane="61_0" departPos="5.10" departSpeed="0.00" departDelay="0.00" arrival="606.00" arrivalLane="310_0" arrivalPos="492.80" arrivalSpeed="10.60" duration="104.00" routeLength="1494.90" waitingTime="0.00" waitingCount="0" stopTime="0.00" timeLoss="9.33" rerouteNo="0" devices="tripinfo_16_502" vType="DEFAULT_VEHTYPE" speedFactor="1.02" vaporized=""/>
    <tripinfo id="13_449" depart="449.00" departLane="113_0" departPos="5.10" departSpeed="0.00" departDelay="0.00" arrival="627.00" arrivalLane="28_0" arrivalPos="492.80" arrivalSpeed="9.04" duration="178.00" routeLength="1494.90" waitingTime="3.00" waitingCount="1" stopTime="0.00" timeLoss="21.29" rerouteNo="0" devices="tripinfo_13_449" vType="DEFAULT_VEHTYPE" speedFactor="0.86" vaporized=""/>
    <tripinfo id="14_452" depart="452.00" departLane="113_0" departPos="5.10" departSpeed="0.00" departDelay="0.00" arrival="629.00" arrivalLane="28_0" arrivalPos="492.80" arrivalSpeed="9.60" duration="177.00" routeLength="1494.90" waitingTime="1.00" waitingCount="1" stopTime="0.00" timeLoss="35.19" rerouteNo="0" devices="tripinfo_14_452" vType="DEFAULT_VEHTYPE" speedFactor="0.95" vaporized=""/>
    <tripinfo id="4_100" depart="100.00" departLane="40_0" departPos="5.10" departSpeed="0.00" departDelay="0.00" arrival="641.00" arrivalLane="17_0" arrivalPos="492.80" arrivalSpeed="10.01" duration="541.00" routeLength="1494.90" waitingTime="425.00" waitingCount="2" stopTime="0.00" timeLoss="443.60" rerouteNo="0" devices="tripinfo_4_100" vType="DEFAULT_VEHTYPE" speedFactor="0.98" vaporized=""/>
    <tripinfo id="18_536" depart="536.00" departLane="92_0" departPos="5.10" departSpeed="0.00" departDelay="0.00" arrival="654.00" arrivalLane="05_0" arrivalPos="492.80" arrivalSpeed="11.37" duration="118.00" routeLength="1494.90" waitingTime="0.00" waitingCount="0" stopTime="0.00" timeLoss="10.37" rerouteNo="0" devices="tripinfo_18_536" vType="DEFAULT_VEHTYPE" speedFactor="1.08" vaporized=""/>
    <tripinfo id="19_556" depart="556.00" departLane="103_0" departPos="5.10" departSpeed="0.00" departDelay="0.00" arrival="672.00" arrivalLane="16_0" arrivalPos="492.80" arrivalSpeed="11.98" duration="116.00" routeLength="1494.90" waitingTime="0.00" waitingCount="0" stopTime="0.00" timeLoss="11.31" rerouteNo="0" devices="tripinfo_19_556" vType="DEFAULT_VEHTYPE" speedFactor="1.11" vaporized=""/>
    <tripinfo id="21_601" depart="601.00" departLane="92_0" departPos="5.10" departSpeed="0.00" departDelay="0.00" arrival="719.00" arrivalLane="05_0" arrivalPos="492.80" arrivalSpeed="10.86" duration="118.00" routeLength="1494.90" waitingTime="0.00" waitingCount="0" stopTime="0.00" timeLoss="10.24" rerouteNo="0" devices="tripinfo_21_601" vType="DEFAULT_VEHTYPE" speedFactor="1.07" vaporized=""/>
    <tripinfo id="23_627" depart="627.00" departLane="50_0" departPos="5.10" departSpeed="0.00" departDelay="0.00" arrival="725.00" arrivalLane="29_0" arrivalPos="492.80" arrivalSpeed="11.27" duration="98.00" routeLength="1494.90" waitingTime="0.00" waitingCount="0" stopTime="0.00" timeLoss="8.69" rerouteNo="0" devices="tripinfo_23_627" vType="DEFAULT_VEHTYPE" speedFactor="1.09" vaporized=""/>
</tripinfos>
