<?xml version="1.0" encoding="UTF-8"?>

<!-- generated on Tue Dec  3 16:34:43 2019 by Eclipse SUMO Version 1.2.0
<configuration xmlns:xsi="http://www.w3.org/2001/XMLSchema-instance" xsi:noNamespaceSchemaLocation="http://sumo.dlr.de/xsd/sumoConfiguration.xsd">

    <input>
        <net-file value="/home/azlaans/aienvs/aienvs/Sumo/../../scenarios/Sumo/cross_network/cross.net.xml"/>
        <route-files value="/home/azlaans/aienvs/aienvs/Sumo/../../scenarios/Sumo/cross_network/10968_routes.rou.xml"/>
    </input>

    <output>
        <tripinfo-output value="/home/azlaans/aienvs/aienvs/Sumo/../../test/Stats/single/tripinfo.xml"/>
    </output>

    <time>
        <begin value="0"/>
    </time>

    <report>
        <verbose value="true"/>
        <no-step-log value="true"/>
    </report>

    <traci_server>
        <remote-port value="10968"/>
    </traci_server>

    <random_number>
        <seed value="70142"/>
    </random_number>

</configuration>
-->

<tripinfos xmlns:xsi="http://www.w3.org/2001/XMLSchema-instance" xsi:noNamespaceSchemaLocation="http://sumo.dlr.de/xsd/tripinfo_file.xsd">
    <tripinfo id="1_1" depart="1.00" departLane="54o_0" departPos="5.10" departSpeed="0.00" departDelay="0.00" arrival="81.00" arrivalLane="53i_0" arrivalPos="10.00" arrivalSpeed="13.15" duration="80.00" routeLength="1015.10" waitingTime="0.00" waitingCount="0" stopTime="0.00" timeLoss="9.46" rerouteNo="0" devices="tripinfo_1_1" vType="DEFAULT_VEHTYPE" speedFactor="1.02" vaporized=""/>
    <tripinfo id="9_27" depart="27.00" departLane="51o_0" departPos="5.10" departSpeed="0.00" departDelay="0.00" arrival="107.00" arrivalLane="52i_0" arrivalPos="10.00" arrivalSpeed="13.52" duration="80.00" routeLength="1015.10" waitingTime="2.00" waitingCount="1" stopTime="0.00" timeLoss="19.24" rerouteNo="0" devices="tripinfo_9_27" vType="DEFAULT_VEHTYPE" speedFactor="1.18" vaporized=""/>
    <tripinfo id="2_7" depart="7.00" departLane="52o_0" departPos="5.10" departSpeed="0.00" departDelay="0.00" arrival="120.00" arrivalLane="51i_0" arrivalPos="10.00" arrivalSpeed="11.16" duration="113.00" routeLength="1015.10" waitingTime="17.00" waitingCount="1" stopTime="0.00" timeLoss="32.51" rerouteNo="0" devices="tripinfo_2_7" vType="DEFAULT_VEHTYPE" speedFactor="0.89" vaporized=""/>
    <tripinfo id="3_11" depart="11.00" departLane="52o_0" departPos="5.10" departSpeed="0.00" departDelay="0.00" arrival="122.00" arrivalLane="51i_0" arrivalPos="10.00" arrivalSpeed="11.83" duration="111.00" routeLength="1015.10" waitingTime="16.00" waitingCount="1" stopTime="0.00" timeLoss="39.36" rerouteNo="0" devices="tripinfo_3_11" vType="DEFAULT_VEHTYPE" speedFactor="1.00" vaporized=""/>
    <tripinfo id="12_37" depart="37.00" departLane="53o_0" departPos="5.10" departSpeed="0.00" departDelay="0.00" arrival="123.00" arrivalLane="54i_0" arrivalPos="10.00" arrivalSpeed="12.13" duration="86.00" routeLength="1015.10" waitingTime="1.00" waitingCount="1" stopTime="0.00" timeLoss="15.39" rerouteNo="0" devices="tripinfo_12_37" vType="DEFAULT_VEHTYPE" speedFactor="1.02" vaporized=""/>
    <tripinfo id="4_13" depart="13.00" departLane="52o_0" departPos="5.10" departSpeed="0.00" departDelay="0.00" arrival="127.00" arrivalLane="51i_0" arrivalPos="10.00" arrivalSpeed="12.87" duration="114.00" routeLength="1015.10" waitingTime="21.00" waitingCount="2" stopTime="0.00" timeLoss="43.65" rerouteNo="0" devices="tripinfo_4_13" vType="DEFAULT_VEHTYPE" speedFactor="1.02" vaporized=""/>
    <tripinfo id="5_14" depart="17.00" departLane="52o_0" departPos="5.10" departSpeed="0.00" departDelay="3.00" arrival="129.00" arrivalLane="51i_0" arrivalPos="10.00" arrivalSpeed="12.98" duration="112.00" routeLength="1015.10" waitingTime="21.00" waitingCount="2" stopTime="0.00" timeLoss="44.33" rerouteNo="0" devices="tripinfo_5_14" vType="DEFAULT_VEHTYPE" speedFactor="1.06" vaporized=""/>
    <tripinfo id="10_29" depart="29.00" departLane="54o_0" departPos="5.10" departSpeed="0.00" departDelay="0.00" arrival="129.00" arrivalLane="53i_0" arrivalPos="10.00" arrivalSpeed="11.10" duration="100.00" routeLength="1015.10" waitingTime="6.00" waitingCount="1" stopTime="0.00" timeLoss="20.47" rerouteNo="0" devices="tripinfo_10_29" vType="DEFAULT_VEHTYPE" speedFactor="0.90" vaporized=""/>
    <tripinfo id="6_15" depart="20.00" departLane="52o_0" departPos="5.10" departSpeed="0.00" departDelay="5.00" arrival="131.00" arrivalLane="51i_0" arrivalPos="10.00" arrivalSpeed="12.02" duration="111.00" routeLength="1015.10" waitingTime="18.00" waitingCount="2" stopTime="0.00" timeLoss="41.14" rerouteNo="0" devices="tripinfo_6_15" vType="DEFAULT_VEHTYPE" speedFactor="1.03" vaporized=""/>
    <tripinfo id="16_50" depart="50.00" departLane="51o_0" departPos="5.10" departSpeed="0.00" departDelay="0.00" arrival="136.00" arrivalLane="52i_0" arrivalPos="10.00" arrivalSpeed="10.49" duration="86.00" routeLength="1015.10" waitingTime="0.00" waitingCount="0" stopTime="0.00" timeLoss="9.41" rerouteNo="0" devices="tripinfo_16_50" vType="DEFAULT_VEHTYPE" speedFactor="0.93" vaporized=""/>
    <tripinfo id="7_19" depart="23.00" departLane="52o_0" departPos="5.10" departSpeed="0.00" departDelay="4.00" arrival="138.00" arrivalLane="51i_0" arrivalPos="10.00" arrivalSpeed="10.65" duration="115.00" routeLength="1015.10" waitingTime="14.00" waitingCount="2" stopTime="0.00" timeLoss="38.31" rerouteNo="0" devices="tripinfo_7_19" vType="DEFAULT_VEHTYPE" speedFactor="0.94" vaporized=""/>
    <tripinfo id="17_54" depart="54.00" departLane="51o_0" departPos="5.10" departSpeed="0.00" departDelay="0.00" arrival="138.00" arrivalLane="52i_0" arrivalPos="10.00" arrivalSpeed="12.82" duration="84.00" routeLength="1015.10" waitingTime="0.00" waitingCount="0" stopTime="0.00" timeLoss="21.05" rerouteNo="0" devices="tripinfo_17_54" vType="DEFAULT_VEHTYPE" speedFactor="1.14" vaporized=""/>
    <tripinfo id="8_22" depart="26.00" departLane="52o_0" departPos="5.10" departSpeed="0.00" departDelay="4.00" arrival="140.00" arrivalLane="51i_0" arrivalPos="10.00" arrivalSpeed="11.99" duration="114.00" routeLength="1015.10" waitingTime="12.00" waitingCount="2" stopTime="0.00" timeLoss="38.78" rerouteNo="0" devices="tripinfo_8_22" vType="DEFAULT_VEHTYPE" speedFactor="0.96" vaporized=""/>
    <tripinfo id="18_55" depart="57.00" departLane="51o_0" departPos="5.10" departSpeed="0.00" departDelay="2.00" arrival="140.00" arrivalLane="52i_0" arrivalPos="10.00" arrivalSpeed="13.36" duration="83.00" routeLength="1015.10" waitingTime="0.00" waitingCount="0" stopTime="0.00" timeLoss="13.40" rerouteNo="0" devices="tripinfo_18_55" vType="DEFAULT_VEHTYPE" speedFactor="1.03" vaporized=""/>
    <tripinfo id="20_57" depart="60.00" departLane="51o_0" departPos="5.10" departSpeed="0.00" departDelay="3.00" arrival="142.00" arrivalLane="52i_0" arrivalPos="10.00" arrivalSpeed="13.07" duration="82.00" routeLength="1015.10" waitingTime="0.00" waitingCount="0" stopTime="0.00" timeLoss="16.18" rerouteNo="0" devices="tripinfo_20_57" vType="DEFAULT_VEHTYPE" speedFactor="1.09" vaporized=""/>
    <tripinfo id="21_60" depart="63.00" departLane="51o_0" departPos="5.10" departSpeed="0.00" departDelay="3.00" arrival="144.00" arrivalLane="52i_0" arrivalPos="10.00" arrivalSpeed="13.19" duration="81.00" routeLength="1015.10" waitingTime="0.00" waitingCount="0" stopTime="0.00" timeLoss="11.03" rerouteNo="0" devices="tripinfo_21_60" vType="DEFAULT_VEHTYPE" speedFactor="1.03" vaporized=""/>
    <tripinfo id="11_35" depart="35.00" departLane="52o_0" departPos="5.10" departSpeed="0.00" departDelay="0.00" arrival="149.00" arrivalLane="51i_0" arrivalPos="10.00" arrivalSpeed="11.33" duration="114.00" routeLength="1015.10" waitingTime="3.00" waitingCount="1" stopTime="0.00" timeLoss="27.37" rerouteNo="0" devices="tripinfo_11_35" vType="DEFAULT_VEHTYPE" speedFactor="0.83" vaporized=""/>
    <tripinfo id="22_66" depart="66.00" departLane="52o_0" departPos="5.10" departSpeed="0.00" departDelay="0.00" arrival="151.00" arrivalLane="51i_0" arrivalPos="10.00" arrivalSpeed="12.43" duration="85.00" routeLength="1015.10" waitingTime="0.00" waitingCount="0" stopTime="0.00" timeLoss="14.95" rerouteNo="0" devices="tripinfo_22_66" vType="DEFAULT_VEHTYPE" speedFactor="1.03" vaporized=""/>
    <tripinfo id="25_75" depart="75.00" departLane="52o_0" departPos="5.10" departSpeed="0.00" departDelay="0.00" arrival="153.00" arrivalLane="51i_0" arrivalPos="10.00" arrivalSpeed="12.66" duration="78.00" routeLength="1015.10" waitingTime="0.00" waitingCount="0" stopTime="0.00" timeLoss="12.09" rerouteNo="0" devices="tripinfo_25_75" vType="DEFAULT_VEHTYPE" speedFactor="1.09" vaporized=""/>
    <tripinfo id="27_81" depart="81.00" departLane="51o_0" departPos="5.10" departSpeed="0.00" departDelay="0.00" arrival="156.00" arrivalLane="52i_0" arrivalPos="10.00" arrivalSpeed="12.99" duration="75.00" routeLength="1015.10" waitingTime="0.00" waitingCount="0" stopTime="0.00" timeLoss="9.17" rerouteNo="0" devices="tripinfo_27_81" vType="DEFAULT_VEHTYPE" speedFactor="1.09" vaporized=""/>
    <tripinfo id="29_83" depart="84.00" departLane="51o_0" departPos="5.10" departSpeed="0.00" departDelay="1.00" arrival="166.00" arrivalLane="52i_0" arrivalPos="10.00" arrivalSpeed="12.41" duration="82.00" routeLength="1015.10" waitingTime="0.00" waitingCount="0" stopTime="0.00" timeLoss="9.65" rerouteNo="0" devices="tripinfo_29_83" vType="DEFAULT_VEHTYPE" speedFactor="0.99" vaporized=""/>
    <tripinfo id="39_107" depart="107.00" departLane="52o_0" departPos="5.10" departSpeed="0.00" departDelay="0.00" arrival="175.00" arrivalLane="51i_0" arrivalPos="10.00" arrivalSpeed="15.55" duration="68.00" routeLength="1015.10" waitingTime="0.00" waitingCount="0" stopTime="0.00" timeLoss="8.26" rerouteNo="0" devices="tripinfo_39_107" vType="DEFAULT_VEHTYPE" speedFactor="1.19" vaporized=""/>
    <tripinfo id="30_89" depart="89.00" departLane="51o_0" departPos="5.10" departSpeed="0.00" departDelay="0.00" arrival="177.00" arrivalLane="52i_0" arrivalPos="10.00" arrivalSpeed="11.91" duration="88.00" routeLength="1015.10" waitingTime="0.00" waitingCount="0" stopTime="0.00" timeLoss="9.34" rerouteNo="0" devices="tripinfo_30_89" vType="DEFAULT_VEHTYPE" speedFactor="0.91" vaporized=""/>
    <tripinfo id="32_94" depart="94.00" departLane="51o_0" departPos="5.10" departSpeed="0.00" departDelay="0.00" arrival="179.00" arrivalLane="52i_0" arrivalPos="10.00" arrivalSpeed="13.15" duration="85.00" routeLength="1015.10" waitingTime="0.00" waitingCount="0" stopTime="0.00" timeLoss="19.34" rerouteNo="0" devices="tripinfo_32_94" vType="DEFAULT_VEHTYPE" speedFactor="1.10" vaporized=""/>
    <tripinfo id="33_95" depart="97.00" departLane="51o_0" departPos="5.10" departSpeed="0.00" departDelay="2.00" arrival="181.00" arrivalLane="52i_0" arrivalPos="10.00" arrivalSpeed="12.82" duration="84.00" routeLength="1015.10" waitingTime="0.00" waitingCount="0" stopTime="0.00" timeLoss="10.55" rerouteNo="0" devices="tripinfo_33_95" vType="DEFAULT_VEHTYPE" speedFactor="0.98" vaporized=""/>
    <tripinfo id="34_97" depart="100.00" departLane="51o_0" departPos="5.10" departSpeed="0.00" departDelay="3.00" arrival="184.00" arrivalLane="52i_0" arrivalPos="10.00" arrivalSpeed="13.10" duration="84.00" routeLength="1015.10" waitingTime="0.00" waitingCount="0" stopTime="0.00" timeLoss="9.20" rerouteNo="0" devices="tripinfo_34_97" vType="DEFAULT_VEHTYPE" speedFactor="0.96" vaporized=""/>
    <tripinfo id="36_99" depart="103.00" departLane="51o_0" departPos="5.10" departSpeed="0.00" departDelay="4.00" arrival="186.00" arrivalLane="52i_0" arrivalPos="10.00" arrivalSpeed="12.95" duration="83.00" routeLength="1015.10" waitingTime="0.00" waitingCount="0" stopTime="0.00" timeLoss="9.90" rerouteNo="0" devices="tripinfo_36_99" vType="DEFAULT_VEHTYPE" speedFactor="0.98" vaporized=""/>
    <tripinfo id="14_45" depart="45.00" departLane="53o_0" departPos="5.10" departSpeed="0.00" departDelay="0.00" arrival="188.00" arrivalLane="54i_0" arrivalPos="10.00" arrivalSpeed="10.93" duration="143.00" routeLength="1015.10" waitingTime="61.00" waitingCount="1" stopTime="0.00" timeLoss="74.87" rerouteNo="0" devices="tripinfo_14_45" vType="DEFAULT_VEHTYPE" speedFactor="1.05" vaporized=""/>
    <tripinfo id="13_44" depart="44.00" departLane="54o_0" departPos="5.10" departSpeed="0.00" departDelay="0.00" arrival="189.00" arrivalLane="53i_0" arrivalPos="10.00" arrivalSpeed="12.99" duration="145.00" routeLength="1015.10" waitingTime="62.00" waitingCount="1" stopTime="0.00" timeLoss="76.48" rerouteNo="0" devices="tripinfo_13_44" vType="DEFAULT_VEHTYPE" speedFactor="1.05" vaporized=""/>
    <tripinfo id="15_46" depart="48.00" departLane="53o_0" departPos="5.10" departSpeed="0.00" departDelay="2.00" arrival="192.00" arrivalLane="54i_0" arrivalPos="10.00" arrivalSpeed="13.62" duration="144.00" routeLength="1015.10" waitingTime="58.00" waitingCount="1" stopTime="0.00" timeLoss="74.14" rerouteNo="0" devices="tripinfo_15_46" vType="DEFAULT_VEHTYPE" speedFactor="1.03" vaporized=""/>
    <tripinfo id="19_56" depart="56.00" departLane="53o_0" departPos="5.10" departSpeed="0.00" departDelay="0.00" arrival="200.00" arrivalLane="54i_0" arrivalPos="10.00" arrivalSpeed="11.05" duration="144.00" routeLength="1015.10" waitingTime="52.00" waitingCount="1" stopTime="0.00" timeLoss="65.48" rerouteNo="0" devices="tripinfo_19_56" vType="DEFAULT_VEHTYPE" speedFactor="0.92" vaporized=""/>
    <tripinfo id="26_80" depart="80.00" departLane="54o_0" departPos="5.10" departSpeed="0.00" departDelay="0.00" arrival="200.00" arrivalLane="53i_0" arrivalPos="10.00" arrivalSpeed="11.61" duration="120.00" routeLength="1015.10" waitingTime="26.00" waitingCount="1" stopTime="0.00" timeLoss="38.84" rerouteNo="0" devices="tripinfo_26_80" vType="DEFAULT_VEHTYPE" speedFactor="0.89" vaporized=""/>
    <tripinfo id="23_70" depart="70.00" departLane="53o_0" departPos="5.10" departSpeed="0.00" departDelay="0.00" arrival="202.00" arrivalLane="54i_0" arrivalPos="10.00" arrivalSpeed="13.78" duration="132.00" routeLength="1015.10" waitingTime="39.00" waitingCount="1" stopTime="0.00" timeLoss="64.41" rerouteNo="0" devices="tripinfo_23_70" vType="DEFAULT_VEHTYPE" speedFactor="1.07" vaporized=""/>
    <tripinfo id="31_93" depart="93.00" departLane="54o_0" departPos="5.10" departSpeed="0.00" departDelay="0.00" arrival="202.00" arrivalLane="53i_0" arrivalPos="10.00" arrivalSpeed="10.72" duration="109.00" routeLength="1015.10" waitingTime="11.00" waitingCount="1" stopTime="0.00" timeLoss="29.39" rerouteNo="0" devices="tripinfo_31_93" vType="DEFAULT_VEHTYPE" speedFactor="0.91" vaporized=""/>
    <tripinfo id="42_111" depart="111.00" departLane="52o_0" departPos="5.10" departSpeed="0.00" departDelay="0.00" arrival="202.00" arrivalLane="51i_0" arrivalPos="10.00" arrivalSpeed="13.14" duration="91.00" routeLength="1015.10" waitingTime="8.00" waitingCount="1" stopTime="0.00" timeLoss="22.66" rerouteNo="0" devices="tripinfo_42_111" vType="DEFAULT_VEHTYPE" speedFactor="1.05" vaporized=""/>
    <tripinfo id="45_118" depart="118.00" departLane="51o_0" departPos="5.10" departSpeed="0.00" departDelay="0.00" arrival="204.00" arrivalLane="52i_0" arrivalPos="10.00" arrivalSpeed="13.04" duration="86.00" routeLength="1015.10" waitingTime="0.00" waitingCount="0" stopTime="0.00" timeLoss="14.07" rerouteNo="0" devices="tripinfo_45_118" vType="DEFAULT_VEHTYPE" speedFactor="1.00" vaporized=""/>
    <tripinfo id="24_71" depart="73.00" departLane="53o_0" departPos="5.10" departSpeed="0.00" departDelay="2.00" arrival="206.00" arrivalLane="54i_0" arrivalPos="10.00" arrivalSpeed="10.65" duration="133.00" routeLength="1015.10" waitingTime="45.00" waitingCount="2" stopTime="0.00" timeLoss="65.36" rerouteNo="0" devices="tripinfo_24_71" vType="DEFAULT_VEHTYPE" speedFactor="1.06" vaporized=""/>
    <tripinfo id="35_98" depart="98.00" departLane="54o_0" departPos="5.10" departSpeed="0.00" departDelay="0.00" arrival="207.00" arrivalLane="53i_0" arrivalPos="10.00" arrivalSpeed="10.66" duration="109.00" routeLength="1015.10" waitingTime="8.00" waitingCount="1" stopTime="0.00" timeLoss="24.72" rerouteNo="0" devices="tripinfo_35_98" vType="DEFAULT_VEHTYPE" speedFactor="0.86" vaporized=""/>
    <tripinfo id="47_123" depart="123.00" departLane="51o_0" departPos="5.10" departSpeed="0.00" departDelay="0.00" arrival="213.00" arrivalLane="52i_0" arrivalPos="10.00" arrivalSpeed="12.81" duration="90.00" routeLength="1015.10" waitingTime="5.00" waitingCount="1" stopTime="0.00" timeLoss="20.09" rerouteNo="0" devices="tripinfo_47_123" vType="DEFAULT_VEHTYPE" speedFactor="1.03" vaporized=""/>
    <tripinfo id="41_110" depart="110.00" departLane="54o_0" departPos="5.10" departSpeed="0.00" departDelay="0.00" arrival="214.00" arrivalLane="53i_0" arrivalPos="10.00" arrivalSpeed="11.46" duration="104.00" routeLength="1015.10" waitingTime="6.00" waitingCount="1" stopTime="0.00" timeLoss="25.26" rerouteNo="0" devices="tripinfo_41_110" vType="DEFAULT_VEHTYPE" speedFactor="0.91" vaporized=""/>
    <tripinfo id="43_114" depart="114.00" departLane="54o_0" departPos="5.10" departSpeed="0.00" departDelay="0.00" arrival="222.00" arrivalLane="53i_0" arrivalPos="10.00" arrivalSpeed="12.21" duration="108.00" routeLength="1015.10" waitingTime="9.00" waitingCount="2" stopTime="0.00" timeLoss="32.07" rerouteNo="0" devices="tripinfo_43_114" vType="DEFAULT_VEHTYPE" speedFactor="0.94" vaporized=""/>
    <tripinfo id="28_82" depart="82.00" departLane="53o_0" departPos="5.10" departSpeed="0.00" departDelay="0.00" arrival="223.00" arrivalLane="54i_0" arrivalPos="10.00" arrivalSpeed="10.87" duration="141.00" routeLength="1015.10" waitingTime="38.00" waitingCount="3" stopTime="0.00" timeLoss="64.70" rerouteNo="0" devices="tripinfo_28_82" vType="DEFAULT_VEHTYPE" speedFactor="0.94" vaporized=""/>
    <tripinfo id="53_140" depart="140.00" departLane="52o_0" departPos="5.10" departSpeed="0.00" departDelay="0.00" arrival="223.00" arrivalLane="51i_0" arrivalPos="10.00" arrivalSpeed="12.87" duration="83.00" routeLength="1015.10" waitingTime="1.00" waitingCount="1" stopTime="0.00" timeLoss="14.97" rerouteNo="0" devices="tripinfo_53_140" vType="DEFAULT_VEHTYPE" speedFactor="1.06" vaporized=""/>
    <tripinfo id="48_126" depart="131.00" departLane="51o_0" departPos="5.10" departSpeed="0.00" departDelay="5.00" arrival="228.00" arrivalLane="52i_0" arrivalPos="10.00" arrivalSpeed="12.35" duration="97.00" routeLength="1015.10" waitingTime="5.00" waitingCount="1" stopTime="0.00" timeLoss="22.65" rerouteNo="0" devices="tripinfo_48_126" vType="DEFAULT_VEHTYPE" speedFactor="0.97" vaporized=""/>
    <tripinfo id="44_116" depart="117.00" departLane="54o_0" departPos="5.10" departSpeed="0.00" departDelay="1.00" arrival="231.00" arrivalLane="53i_0" arrivalPos="10.00" arrivalSpeed="11.54" duration="114.00" routeLength="1015.10" waitingTime="15.00" waitingCount="3" stopTime="0.00" timeLoss="43.22" rerouteNo="0" devices="tripinfo_44_116" vType="DEFAULT_VEHTYPE" speedFactor="1.02" vaporized=""/>
    <tripinfo id="55_149" depart="149.00" departLane="52o_0" departPos="5.10" departSpeed="0.00" departDelay="0.00" arrival="234.00" arrivalLane="51i_0" arrivalPos="10.00" arrivalSpeed="13.67" duration="85.00" routeLength="1015.10" waitingTime="3.00" waitingCount="1" stopTime="0.00" timeLoss="19.69" rerouteNo="0" devices="tripinfo_55_149" vType="DEFAULT_VEHTYPE" speedFactor="1.09" vaporized=""/>
    <tripinfo id="37_104" depart="104.00" departLane="53o_0" departPos="5.10" departSpeed="0.00" departDelay="0.00" arrival="239.00" arrivalLane="54i_0" arrivalPos="10.00" arrivalSpeed="10.82" duration="135.00" routeLength="1015.10" waitingTime="25.00" waitingCount="4" stopTime="0.00" timeLoss="53.87" rerouteNo="0" devices="tripinfo_37_104" vType="DEFAULT_VEHTYPE" speedFactor="0.89" vaporized=""/>
    <tripinfo id="49_130" depart="134.00" departLane="51o_0" departPos="5.10" departSpeed="0.00" departDelay="4.00" arrival="239.00" arrivalLane="52i_0" arrivalPos="10.00" arrivalSpeed="11.77" duration="105.00" routeLength="1015.10" waitingTime="12.00" waitingCount="2" stopTime="0.00" timeLoss="32.47" rerouteNo="0" devices="tripinfo_49_130" vType="DEFAULT_VEHTYPE" speedFactor="0.99" vaporized=""/>
    <tripinfo id="59_155" depart="155.00" departLane="51o_0" departPos="5.10" departSpeed="0.00" departDelay="0.00" arrival="240.00" arrivalLane="52i_0" arrivalPos="10.00" arrivalSpeed="11.22" duration="85.00" routeLength="1015.10" waitingTime="0.00" waitingCount="0" stopTime="0.00" timeLoss="17.61" rerouteNo="0" devices="tripinfo_59_155" vType="DEFAULT_VEHTYPE" speedFactor="1.06" vaporized=""/>
    <tripinfo id="38_106" depart="107.00" departLane="53o_0" departPos="5.10" departSpeed="0.00" departDelay="1.00" arrival="241.00" arrivalLane="54i_0" arrivalPos="10.00" arrivalSpeed="12.88" duration="134.00" routeLength="1015.10" waitingTime="29.00" waitingCount="5" stopTime="0.00" timeLoss="70.08" rerouteNo="0" devices="tripinfo_38_106" vType="DEFAULT_VEHTYPE" speedFactor="1.12" vaporized=""/>
    <tripinfo id="50_133" depart="133.00" departLane="54o_0" departPos="5.10" departSpeed="0.00" departDelay="0.00" arrival="241.00" arrivalLane="53i_0" arrivalPos="10.00" arrivalSpeed="13.92" duration="108.00" routeLength="1015.10" waitingTime="21.00" waitingCount="3" stopTime="0.00" timeLoss="43.22" rerouteNo="0" devices="tripinfo_50_133" vType="DEFAULT_VEHTYPE" speedFactor="1.11" vaporized=""/>
    <tripinfo id="56_151" depart="152.00" departLane="52o_0" departPos="5.10" departSpeed="0.00" departDelay="1.00" arrival="251.00" arrivalLane="51i_0" arrivalPos="10.00" arrivalSpeed="11.65" duration="99.00" routeLength="1015.10" waitingTime="10.00" waitingCount="2" stopTime="0.00" timeLoss="27.36" rerouteNo="0" devices="tripinfo_56_151" vType="DEFAULT_VEHTYPE" speedFactor="1.00" vaporized=""/>
    <tripinfo id="51_135" depart="136.00" departLane="54o_0" departPos="5.10" departSpeed="0.00" departDelay="1.00" arrival="252.00" arrivalLane="53i_0" arrivalPos="10.00" arrivalSpeed="12.36" duration="116.00" routeLength="1015.10" waitingTime="22.00" waitingCount="4" stopTime="0.00" timeLoss="50.40" rerouteNo="0" devices="tripinfo_51_135" vType="DEFAULT_VEHTYPE" speedFactor="1.09" vaporized=""/>
    <tripinfo id="40_108" depart="110.00" departLane="53o_0" departPos="5.10" departSpeed="0.00" departDelay="2.00" arrival="256.00" arrivalLane="54i_0" arrivalPos="10.00" arrivalSpeed="11.55" duration="146.00" routeLength="1015.10" waitingTime="27.00" waitingCount="6" stopTime="0.00" timeLoss="74.89" rerouteNo="0" devices="tripinfo_40_108" vType="DEFAULT_VEHTYPE" speedFactor="1.01" vaporized=""/>
    <tripinfo id="46_119" depart="119.00" departLane="53o_0" departPos="5.10" departSpeed="0.00" departDelay="0.00" arrival="258.00" arrivalLane="54i_0" arrivalPos="10.00" arrivalSpeed="11.50" duration="139.00" routeLength="1015.10" waitingTime="19.00" waitingCount="6" stopTime="0.00" timeLoss="67.60" rerouteNo="0" devices="tripinfo_46_119" vType="DEFAULT_VEHTYPE" speedFactor="1.00" vaporized=""/>
    <tripinfo id="61_157" depart="157.00" departLane="54o_0" departPos="5.10" departSpeed="0.00" departDelay="0.00" arrival="265.00" arrivalLane="53i_0" arrivalPos="10.00" arrivalSpeed="10.78" duration="108.00" routeLength="1015.10" waitingTime="8.00" waitingCount="2" stopTime="0.00" timeLoss="27.30" rerouteNo="0" devices="tripinfo_61_157" vType="DEFAULT_VEHTYPE" speedFactor="0.90" vaporized=""/>
    <tripinfo id="57_152" depart="156.00" departLane="52o_0" departPos="5.10" departSpeed="0.00" departDelay="4.00" arrival="267.00" arrivalLane="51i_0" arrivalPos="10.00" arrivalSpeed="12.09" duration="111.00" routeLength="1015.10" waitingTime="15.00" waitingCount="2" stopTime="0.00" timeLoss="36.45" rerouteNo="0" devices="tripinfo_57_152" vType="DEFAULT_VEHTYPE" speedFactor="0.96" vaporized=""/>
    <tripinfo id="62_160" depart="160.00" departLane="54o_0" departPos="5.10" departSpeed="0.00" departDelay="0.00" arrival="271.00" arrivalLane="53i_0" arrivalPos="10.00" arrivalSpeed="12.53" duration="111.00" routeLength="1015.10" waitingTime="11.00" waitingCount="3" stopTime="0.00" timeLoss="38.16" rerouteNo="0" devices="tripinfo_62_160" vType="DEFAULT_VEHTYPE" speedFactor="0.99" vaporized=""/>
    <tripinfo id="71_173" depart="173.00" departLane="51o_0" departPos="5.10" departSpeed="0.00" departDelay="0.00" arrival="277.00" arrivalLane="52i_0" arrivalPos="10.00" arrivalSpeed="11.04" duration="104.00" routeLength="1015.10" waitingTime="0.00" waitingCount="0" stopTime="0.00" timeLoss="15.25" rerouteNo="0" devices="tripinfo_71_173" vType="DEFAULT_VEHTYPE" speedFactor="0.81" vaporized=""/>
    <tripinfo id="73_186" depart="186.00" departLane="51o_0" departPos="5.10" departSpeed="0.00" departDelay="0.00" arrival="279.00" arrivalLane="52i_0" arrivalPos="10.00" arrivalSpeed="12.62" duration="93.00" routeLength="1015.10" waitingTime="9.00" waitingCount="1" stopTime="0.00" timeLoss="27.61" rerouteNo="0" devices="tripinfo_73_186" vType="DEFAULT_VEHTYPE" speedFactor="1.09" vaporized=""/>
    <tripinfo id="52_136" depart="136.00" departLane="53o_0" departPos="5.10" departSpeed="0.00" departDelay="0.00" arrival="280.00" arrivalLane="54i_0" arrivalPos="10.00" arrivalSpeed="9.76" duration="144.00" routeLength="1015.10" waitingTime="18.00" waitingCount="4" stopTime="0.00" timeLoss="59.01" rerouteNo="0" devices="tripinfo_52_136" vType="DEFAULT_VEHTYPE" speedFactor="0.85" vaporized=""/>
    <tripinfo id="58_153" depart="159.00" departLane="52o_0" departPos="5.10" departSpeed="0.00" departDelay="6.00" arrival="280.00" arrivalLane="51i_0" arrivalPos="10.00" arrivalSpeed="10.47" duration="121.00" routeLength="1015.10" waitingTime="26.00" waitingCount="3" stopTime="0.00" timeLoss="48.98" rerouteNo="0" devices="tripinfo_58_153" vType="DEFAULT_VEHTYPE" speedFactor="0.99" vaporized=""/>
    <tripinfo id="54_148" depart="148.00" departLane="53o_0" departPos="5.10" departSpeed="0.00" departDelay="0.00" arrival="282.00" arrivalLane="54i_0" arrivalPos="10.00" arrivalSpeed="10.84" duration="134.00" routeLength="1015.10" waitingTime="15.00" waitingCount="4" stopTime="0.00" timeLoss="49.50" rerouteNo="0" devices="tripinfo_54_148" vType="DEFAULT_VEHTYPE" speedFactor="0.85" vaporized=""/>
    <tripinfo id="63_162" depart="162.00" departLane="52o_0" departPos="5.10" departSpeed="0.00" departDelay="0.00" arrival="287.00" arrivalLane="51i_0" arrivalPos="10.00" arrivalSpeed="14.36" duration="125.00" routeLength="1015.10" waitingTime="29.00" waitingCount="4" stopTime="0.00" timeLoss="62.17" rerouteNo="0" devices="tripinfo_63_162" vType="DEFAULT_VEHTYPE" speedFactor="1.15" vaporized=""/>
    <tripinfo id="64_163" depart="163.00" departLane="54o_0" departPos="5.10" departSpeed="0.00" departDelay="0.00" arrival="288.00" arrivalLane="53i_0" arrivalPos="10.00" arrivalSpeed="9.63" duration="125.00" routeLength="1015.10" waitingTime="7.00" waitingCount="2" stopTime="0.00" timeLoss="30.98" rerouteNo="0" devices="tripinfo_64_163" vType="DEFAULT_VEHTYPE" speedFactor="0.76" vaporized=""/>
    <tripinfo id="81_206" depart="206.00" departLane="51o_0" departPos="5.10" departSpeed="0.00" departDelay="0.00" arrival="289.00" arrivalLane="52i_0" arrivalPos="10.00" arrivalSpeed="14.78" duration="83.00" routeLength="1015.10" waitingTime="2.00" waitingCount="1" stopTime="0.00" timeLoss="18.09" rerouteNo="0" devices="tripinfo_81_206" vType="DEFAULT_VEHTYPE" speedFactor="1.11" vaporized=""/>
    <tripinfo id="65_165" depart="166.00" departLane="54o_0" departPos="5.10" departSpeed="0.00" departDelay="1.00" arrival="290.00" arrivalLane="53i_0" arrivalPos="10.00" arrivalSpeed="11.41" duration="124.00" routeLength="1015.10" waitingTime="6.00" waitingCount="2" stopTime="0.00" timeLoss="52.96" rerouteNo="0" devices="tripinfo_65_165" vType="DEFAULT_VEHTYPE" speedFactor="1.01" vaporized=""/>
    <tripinfo id="67_167" depart="169.00" departLane="54o_0" departPos="5.10" departSpeed="0.00" departDelay="2.00" arrival="292.00" arrivalLane="53i_0" arrivalPos="10.00" arrivalSpeed="12.81" duration="123.00" routeLength="1015.10" waitingTime="9.00" waitingCount="3" stopTime="0.00" timeLoss="52.65" rerouteNo="0" devices="tripinfo_67_167" vType="DEFAULT_VEHTYPE" speedFactor="1.02" vaporized=""/>
    <tripinfo id="60_156" depart="156.00" departLane="53o_0" departPos="5.10" departSpeed="0.00" departDelay="0.00" arrival="294.00" arrivalLane="54i_0" arrivalPos="10.00" arrivalSpeed="11.25" duration="138.00" routeLength="1015.10" waitingTime="19.00" waitingCount="3" stopTime="0.00" timeLoss="53.18" rerouteNo="0" devices="tripinfo_60_156" vType="DEFAULT_VEHTYPE" speedFactor="0.85" vaporized=""/>
    <tripinfo id="77_196" depart="196.00" departLane="54o_0" departPos="5.10" departSpeed="0.00" departDelay="0.00" arrival="294.00" arrivalLane="53i_0" arrivalPos="10.00" arrivalSpeed="11.00" duration="98.00" routeLength="1015.10" waitingTime="2.00" waitingCount="1" stopTime="0.00" timeLoss="19.14" rerouteNo="0" devices="tripinfo_77_196" vType="DEFAULT_VEHTYPE" speedFactor="0.91" vaporized=""/>
    <tripinfo id="86_222" depart="223.00" departLane="51o_0" departPos="5.10" departSpeed="0.00" departDelay="1.00" arrival="297.00" arrivalLane="52i_0" arrivalPos="10.00" arrivalSpeed="13.43" duration="74.00" routeLength="1015.10" waitingTime="0.00" waitingCount="0" stopTime="0.00" timeLoss="9.46" rerouteNo="0" devices="tripinfo_86_222" vType="DEFAULT_VEHTYPE" speedFactor="1.12" vaporized=""/>
    <tripinfo id="69_169" depart="169.00" departLane="52o_0" departPos="5.10" departSpeed="0.00" departDelay="0.00" arrival="299.00" arrivalLane="51i_0" arrivalPos="10.00" arrivalSpeed="11.22" duration="130.00" routeLength="1015.10" waitingTime="30.00" waitingCount="5" stopTime="0.00" timeLoss="63.75" rerouteNo="0" devices="tripinfo_69_169" vType="DEFAULT_VEHTYPE" speedFactor="1.08" vaporized=""/>