<?xml version="1.0" encoding="UTF-8"?>

<!-- generated on Thu Jan 16 15:45:05 2020 by Eclipse SUMO Version 1.2.0
<configuration xmlns:xsi="http://www.w3.org/2001/XMLSchema-instance" xsi:noNamespaceSchemaLocation="http://sumo.dlr.de/xsd/sumoConfiguration.xsd">

    <input>
        <net-file value="/home/azlaans/aienvs/aienvs/Sumo/../../scenarios/Sumo/eight_intersection/eight.net.xml"/>
        <route-files value="/home/azlaans/aienvs/aienvs/Sumo/../../scenarios/Sumo/eight_intersection/11809_routes.rou.xml"/>
    </input>

    <output>
        <tripinfo-output value="/home/azlaans/aienvs/aienvs/Sumo/../../test/Stats/three_intersection/tripinfo.xml"/>
    </output>

    <time>
        <begin value="0"/>
    </time>

    <report>
        <verbose value="true"/>
        <no-step-log value="true"/>
    </report>

    <traci_server>
        <remote-port value="11809"/>
    </traci_server>

    <random_number>
        <seed value="35821"/>
    </random_number>

</configuration>
-->

<tripinfos xmlns:xsi="http://www.w3.org/2001/XMLSchema-instance" xsi:noNamespaceSchemaLocation="http://sumo.dlr.de/xsd/tripinfo_file.xsd">
    <tripinfo id="1_3" depart="3.00" departLane="101_0" departPos="5.10" departSpeed="0.00" departDelay="0.00" arrival="144.00" arrivalLane="516_0" arrivalPos="492.80" arrivalSpeed="9.70" duration="141.00" routeLength="1494.90" waitingTime="6.00" waitingCount="1" stopTime="0.00" timeLoss="20.12" rerouteNo="0" devices="tripinfo_1_3" vType="DEFAULT_VEHTYPE" speedFactor="0.95" vaporized=""/>
    <tripinfo id="5_18" depart="18.00" departLane="154_0" departPos="5.10" departSpeed="0.00" departDelay="0.00" arrival="163.00" arrivalLane="09_0" arrivalPos="492.80" arrivalSpeed="11.14" duration="145.00" routeLength="1494.90" waitingTime="18.00" waitingCount="2" stopTime="0.00" timeLoss="40.26" rerouteNo="0" devices="tripinfo_5_18" vType="DEFAULT_VEHTYPE" speedFactor="1.11" vaporized=""/>
    <tripinfo id="6_25" depart="25.00" departLane="165_0" departPos="5.10" departSpeed="0.00" departDelay="0.00" arrival="165.00" arrivalLane="110_0" arrivalPos="492.80" arrivalSpeed="20.84" duration="140.00" routeLength="1494.90" waitingTime="35.00" waitingCount="1" stopTime="0.00" timeLoss="50.92" rerouteNo="0" devices="tripinfo_6_25" vType="DEFAULT_VEHTYPE" speedFactor="1.09" vaporized=""/>
    <tripinfo id="7_30" depart="30.00" departLane="101_0" departPos="5.10" departSpeed="0.00" departDelay="0.00" arrival="168.00" arrivalLane="516_0" arrivalPos="492.80" arrivalSpeed="11.53" duration="138.00" routeLength="1494.90" waitingTime="13.00" waitingCount="1" stopTime="0.00" timeLoss="27.12" rerouteNo="0" devices="tripinfo_7_30" vType="DEFAULT_VEHTYPE" speedFactor="1.04" vaporized=""/>
    <tripinfo id="9_36" depart="36.00" departLane="101_0" departPos="5.10" departSpeed="0.00" departDelay="0.00" arrival="181.00" arrivalLane="516_0" arrivalPos="492.80" arrivalSpeed="9.44" duration="145.00" routeLength="1494.90" waitingTime="1.00" waitingCount="1" stopTime="0.00" timeLoss="17.92" rerouteNo="0" devices="tripinfo_9_36" vType="DEFAULT_VEHTYPE" speedFactor="0.91" vaporized=""/>
    <tripinfo id="13_52" depart="52.00" departLane="176_0" departPos="5.10" departSpeed="0.00" departDelay="0.00" arrival="181.00" arrivalLane="211_0" arrivalPos="492.80" arrivalSpeed="10.11" duration="129.00" routeLength="1494.90" waitingTime="0.00" waitingCount="0" stopTime="0.00" timeLoss="11.25" rerouteNo="0" devices="tripinfo_13_52" vType="DEFAULT_VEHTYPE" speedFactor="0.99" vaporized=""/>
    <tripinfo id="16_58" depart="58.00" departLane="101_0" departPos="5.10" departSpeed="0.00" departDelay="0.00" arrival="183.00" arrivalLane="516_0" arrivalPos="492.80" arrivalSpeed="11.15" duration="125.00" routeLength="1494.90" waitingTime="0.00" waitingCount="0" stopTime="0.00" timeLoss="15.63" rerouteNo="0" devices="tripinfo_16_58" vType="DEFAULT_VEHTYPE" speedFactor="1.06" vaporized=""/>
    <tripinfo id="10_40" depart="40.00" departLane="154_0" departPos="5.10" departSpeed="0.00" departDelay="0.00" arrival="194.00" arrivalLane="09_0" arrivalPos="492.80" arrivalSpeed="11.02" duration="154.00" routeLength="1494.90" waitingTime="28.00" waitingCount="2" stopTime="0.00" timeLoss="48.61" rerouteNo="0" devices="tripinfo_10_40" vType="DEFAULT_VEHTYPE" speedFactor="1.10" vaporized=""/>
    <tripinfo id="19_65" depart="65.00" departLane="187_0" departPos="5.10" departSpeed="0.00" departDelay="0.00" arrival="197.00" arrivalLane="312_0" arrivalPos="492.80" arrivalSpeed="9.52" duration="132.00" routeLength="1494.90" waitingTime="7.00" waitingCount="1" stopTime="0.00" timeLoss="26.00" rerouteNo="0" devices="tripinfo_19_65" vType="DEFAULT_VEHTYPE" speedFactor="0.91" vaporized=""/>
    <tripinfo id="23_80" depart="80.00" departLane="90_0" departPos="5.10" departSpeed="0.00" departDelay="0.00" arrival="200.00" arrivalLane="415_0" arrivalPos="492.80" arrivalSpeed="10.79" duration="120.00" routeLength="1494.90" waitingTime="7.00" waitingCount="2" stopTime="0.00" timeLoss="29.74" rerouteNo="0" devices="tripinfo_23_80" vType="DEFAULT_VEHTYPE" speedFactor="1.07" vaporized=""/>
    <tripinfo id="12_48" depart="48.00" departLane="154_0" departPos="5.10" departSpeed="0.00" departDelay="0.00" arrival="201.00" arrivalLane="09_0" arrivalPos="492.80" arrivalSpeed="10.08" duration="153.00" routeLength="1494.90" waitingTime="11.00" waitingCount="2" stopTime="0.00" timeLoss="35.97" rerouteNo="0" devices="tripinfo_12_48" vType="DEFAULT_VEHTYPE" speedFactor="0.99" vaporized=""/>
    <tripinfo id="2_5" depart="5.00" departLane="80_0" departPos="5.10" departSpeed="0.00" departDelay="0.00" arrival="206.00" arrivalLane="313_0" arrivalPos="492.80" arrivalSpeed="23.37" duration="201.00" routeLength="2494.90" waitingTime="31.00" waitingCount="2" stopTime="0.00" timeLoss="62.70" rerouteNo="0" devices="tripinfo_2_5" vType="DEFAULT_VEHTYPE" speedFactor="1.21" vaporized=""/>
    <tripinfo id="18_64" depart="64.00" departLane="165_0" departPos="5.10" departSpeed="0.00" departDelay="0.00" arrival="207.00" arrivalLane="110_0" arrivalPos="492.80" arrivalSpeed="15.82" duration="143.00" routeLength="1494.90" waitingTime="12.00" waitingCount="2" stopTime="0.00" timeLoss="31.38" rerouteNo="0" devices="tripinfo_18_64" vType="DEFAULT_VEHTYPE" speedFactor="0.87" vaporized=""/>
    <tripinfo id="20_71" depart="71.00" departLane="187_0" departPos="5.10" departSpeed="0.00" departDelay="0.00" arrival="207.00" arrivalLane="312_0" arrivalPos="492.80" arrivalSpeed="10.17" duration="136.00" routeLength="1494.90" waitingTime="8.00" waitingCount="2" stopTime="0.00" timeLoss="34.47" rerouteNo="0" devices="tripinfo_20_71" vType="DEFAULT_VEHTYPE" speedFactor="0.96" vaporized=""/>
    <tripinfo id="24_85" depart="85.00" departLane="112_0" departPos="5.10" departSpeed="0.00" departDelay="0.00" arrival="207.00" arrivalLane="617_0" arrivalPos="492.80" arrivalSpeed="9.77" duration="122.00" routeLength="1494.90" waitingTime="0.00" waitingCount="0" stopTime="0.00" timeLoss="15.38" rerouteNo="0" devices="tripinfo_24_85" vType="DEFAULT_VEHTYPE" speedFactor="0.90" vaporized=""/>
    <tripinfo id="28_100" depart="100.00" departLane="112_0" departPos="5.10" departSpeed="0.00" departDelay="0.00" arrival="209.00" arrivalLane="617_0" arrivalPos="492.80" arrivalSpeed="10.48" duration="109.00" routeLength="1494.90" waitingTime="0.00" waitingCount="0" stopTime="0.00" timeLoss="17.19" rerouteNo="0" devices="tripinfo_28_100" vType="DEFAULT_VEHTYPE" speedFactor="1.05" vaporized=""/>
    <tripinfo id="29_104" depart="104.00" departLane="112_0" departPos="5.10" departSpeed="0.00" departDelay="0.00" arrival="211.00" arrivalLane="617_0" arrivalPos="492.80" arrivalSpeed="10.70" duration="107.00" routeLength="1494.90" waitingTime="0.00" waitingCount="0" stopTime="0.00" timeLoss="13.61" rerouteNo="0" devices="tripinfo_29_104" vType="DEFAULT_VEHTYPE" speedFactor="1.04" vaporized=""/>
    <tripinfo id="4_14" depart="14.00" departLane="123_0" departPos="5.10" departSpeed="0.00" departDelay="0.00" arrival="224.00" arrivalLane="718_0" arrivalPos="492.80" arrivalSpeed="11.06" duration="210.00" routeLength="1494.90" waitingTime="74.00" waitingCount="2" stopTime="0.00" timeLoss="95.20" rerouteNo="0" devices="tripinfo_4_14" vType="DEFAULT_VEHTYPE" speedFactor="1.01" vaporized=""/>
    <tripinfo id="3_11" depart="11.00" departLane="133_0" departPos="5.10" departSpeed="0.00" departDelay="0.00" arrival="226.00" arrivalLane="08_0" arrivalPos="492.80" arrivalSpeed="11.64" duration="215.00" routeLength="2494.90" waitingTime="21.00" waitingCount="2" stopTime="0.00" timeLoss="50.10" rerouteNo="0" devices="tripinfo_3_11" vType="DEFAULT_VEHTYPE" speedFactor="1.13" vaporized=""/>
    <tripinfo id="14_54" depart="54.00" departLane="123_0" departPos="5.10" departSpeed="0.00" departDelay="0.00" arrival="226.00" arrivalLane="718_0" arrivalPos="492.80" arrivalSpeed="11.01" duration="172.00" routeLength="1494.90" waitingTime="40.00" waitingCount="4" stopTime="0.00" timeLoss="66.72" rerouteNo="0" devices="tripinfo_14_54" vType="DEFAULT_VEHTYPE" speedFactor="1.10" vaporized=""/>
    <tripinfo id="25_92" depart="92.00" departLane="101_0" departPos="5.10" departSpeed="0.00" departDelay="0.00" arrival="236.00" arrivalLane="516_0" arrivalPos="492.80" arrivalSpeed="10.32" duration="144.00" routeLength="1494.90" waitingTime="4.00" waitingCount="1" stopTime="0.00" timeLoss="24.62" rerouteNo="0" devices="tripinfo_25_92" vType="DEFAULT_VEHTYPE" speedFactor="0.97" vaporized=""/>
    <tripinfo id="15_56" depart="57.00" departLane="123_0" departPos="5.10" departSpeed="0.00" departDelay="1.00" arrival="242.00" arrivalLane="718_0" arrivalPos="492.80" arrivalSpeed="10.55" duration="185.00" routeLength="1494.90" waitingTime="30.00" waitingCount="4" stopTime="0.00" timeLoss="64.38" rerouteNo="0" devices="tripinfo_15_56" vType="DEFAULT_VEHTYPE" speedFactor="0.96" vaporized=""/>
    <tripinfo id="22_77" depart="77.00" departLane="123_0" departPos="5.10" departSpeed="0.00" departDelay="0.00" arrival="244.00" arrivalLane="718_0" arrivalPos="492.80" arrivalSpeed="11.59" duration="167.00" routeLength="1494.90" waitingTime="14.00" waitingCount="3" stopTime="0.00" timeLoss="56.27" rerouteNo="0" devices="tripinfo_22_77" vType="DEFAULT_VEHTYPE" speedFactor="1.05" vaporized=""/>
    <tripinfo id="30_111" depart="111.00" departLane="154_0" departPos="5.10" departSpeed="0.00" departDelay="0.00" arrival="261.00" arrivalLane="09_0" arrivalPos="492.80" arrivalSpeed="10.03" duration="150.00" routeLength="1494.90" waitingTime="4.00" waitingCount="1" stopTime="0.00" timeLoss="24.23" rerouteNo="0" devices="tripinfo_30_111" vType="DEFAULT_VEHTYPE" speedFactor="0.93" vaporized=""/>
    <tripinfo id="40_150" depart="150.00" departLane="112_0" departPos="5.10" departSpeed="0.00" departDelay="0.00" arrival="269.00" arrivalLane="617_0" arrivalPos="492.80" arrivalSpeed="10.96" duration="119.00" routeLength="1494.90" waitingTime="0.00" waitingCount="0" stopTime="0.00" timeLoss="21.31" rerouteNo="0" devices="tripinfo_40_150" vType="DEFAULT_VEHTYPE" speedFactor="0.99" vaporized=""/>
    <tripinfo id="39_143" depart="144.00" departLane="165_0" departPos="5.10" departSpeed="0.00" departDelay="1.00" arrival="270.00" arrivalLane="110_0" arrivalPos="492.80" arrivalSpeed="18.50" duration="126.00" routeLength="1494.90" waitingTime="5.00" waitingCount="1" stopTime="0.00" timeLoss="28.36" rerouteNo="0" devices="tripinfo_39_143" vType="DEFAULT_VEHTYPE" speedFactor="0.99" vaporized=""/>
    <tripinfo id="31_113" depart="113.00" departLane="176_0" departPos="5.10" departSpeed="0.00" departDelay="0.00" arrival="271.00" arrivalLane="211_0" arrivalPos="492.80" arrivalSpeed="10.50" duration="158.00" routeLength="1494.90" waitingTime="13.00" waitingCount="2" stopTime="0.00" timeLoss="37.05" rerouteNo="0" devices="tripinfo_31_113" vType="DEFAULT_VEHTYPE" speedFactor="0.96" vaporized=""/>
    <tripinfo id="32_114" depart="116.00" departLane="176_0" departPos="5.10" departSpeed="0.00" departDelay="2.00" arrival="273.00" arrivalLane="211_0" arrivalPos="492.80" arrivalSpeed="9.83" duration="157.00" routeLength="1494.90" waitingTime="13.00" waitingCount="2" stopTime="0.00" timeLoss="39.15" rerouteNo="0" devices="tripinfo_32_114" vType="DEFAULT_VEHTYPE" speedFactor="0.98" vaporized=""/>
    <tripinfo id="17_59" depart="59.00" departLane="80_0" departPos="5.10" departSpeed="0.00" departDelay="0.00" arrival="275.00" arrivalLane="313_0" arrivalPos="492.80" arrivalSpeed="16.70" duration="216.00" routeLength="2494.90" waitingTime="5.00" waitingCount="1" stopTime="0.00" timeLoss="29.91" rerouteNo="0" devices="tripinfo_17_59" vType="DEFAULT_VEHTYPE" speedFactor="0.90" vaporized=""/>
    <tripinfo id="34_118" depart="119.00" departLane="176_0" departPos="5.10" departSpeed="0.00" departDelay="1.00" arrival="275.00" arrivalLane="211_0" arrivalPos="492.80" arrivalSpeed="11.75" duration="156.00" routeLength="1494.90" waitingTime="12.00" waitingCount="2" stopTime="0.00" timeLoss="50.60" rerouteNo="0" devices="tripinfo_34_118" vType="DEFAULT_VEHTYPE" speedFactor="1.11" vaporized=""/>
    <tripinfo id="41_153" depart="153.00" departLane="154_0" departPos="5.10" departSpeed="0.00" departDelay="0.00" arrival="275.00" arrivalLane="09_0" arrivalPos="492.80" arrivalSpeed="11.26" duration="122.00" routeLength="1494.90" waitingTime="0.00" waitingCount="0" stopTime="0.00" timeLoss="11.98" rerouteNo="0" devices="tripinfo_41_153" vType="DEFAULT_VEHTYPE" speedFactor="1.06" vaporized=""/>
    <tripinfo id="46_178" depart="178.00" departLane="90_0" departPos="5.10" departSpeed="0.00" departDelay="0.00" arrival="283.00" arrivalLane="415_0" arrivalPos="492.80" arrivalSpeed="12.20" duration="105.00" routeLength="1494.90" waitingTime="6.00" waitingCount="1" stopTime="0.00" timeLoss="23.02" rerouteNo="0" devices="tripinfo_46_178" vType="DEFAULT_VEHTYPE" speedFactor="1.19" vaporized=""/>
    <tripinfo id="49_188" depart="188.00" departLane="90_0" departPos="5.10" departSpeed="0.00" departDelay="0.00" arrival="287.00" arrivalLane="415_0" arrivalPos="492.80" arrivalSpeed="11.22" duration="99.00" routeLength="1494.90" waitingTime="0.00" waitingCount="0" stopTime="0.00" timeLoss="12.54" rerouteNo="0" devices="tripinfo_49_188" vType="DEFAULT_VEHTYPE" speedFactor="1.12" vaporized=""/>
    <tripinfo id="27_99" depart="99.00" departLane="80_0" departPos="5.10" departSpeed="0.00" departDelay="0.00" arrival="294.00" arrivalLane="313_0" arrivalPos="492.80" arrivalSpeed="22.15" duration="195.00" routeLength="2494.90" waitingTime="19.00" waitingCount="3" stopTime="0.00" timeLoss="49.50" rerouteNo="0" devices="tripinfo_27_99" vType="DEFAULT_VEHTYPE" speedFactor="1.15" vaporized=""/>
    <tripinfo id="33_117" depart="117.00" departLane="144_0" departPos="5.10" departSpeed="0.00" departDelay="0.00" arrival="306.00" arrivalLane="719_0" arrivalPos="492.80" arrivalSpeed="11.27" duration="189.00" routeLength="2494.90" waitingTime="5.00" waitingCount="1" stopTime="0.00" timeLoss="26.45" rerouteNo="0" devices="tripinfo_33_117" vType="DEFAULT_VEHTYPE" speedFactor="1.03" vaporized=""/>
    <tripinfo id="42_163" depart="165.00" departLane="101_0" departPos="5.10" departSpeed="0.00" departDelay="2.00" arrival="309.00" arrivalLane="516_0" arrivalPos="492.80" arrivalSpeed="9.16" duration="144.00" routeLength="1494.90" waitingTime="0.00" waitingCount="0" stopTime="0.00" timeLoss="17.18" rerouteNo="0" devices="tripinfo_42_163" vType="DEFAULT_VEHTYPE" speedFactor="0.91" vaporized=""/>
    <tripinfo id="21_75" depart="75.00" departLane="197_0" departPos="5.10" departSpeed="0.00" departDelay="0.00" arrival="310.00" arrivalLane="414_0" arrivalPos="492.80" arrivalSpeed="10.03" duration="235.00" routeLength="2494.90" waitingTime="8.00" waitingCount="1" stopTime="0.00" timeLoss="34.12" rerouteNo="0" devices="tripinfo_21_75" vType="DEFAULT_VEHTYPE" speedFactor="0.93" vaporized=""/>
    <tripinfo id="35_130" depart="130.00" departLane="176_0" departPos="5.10" departSpeed="0.00" departDelay="0.00" arrival="312.00" arrivalLane="211_0" arrivalPos="492.80" arrivalSpeed="8.30" duration="182.00" routeLength="1494.90" waitingTime="15.00" waitingCount="2" stopTime="0.00" timeLoss="37.43" rerouteNo="0" devices="tripinfo_35_130" vType="DEFAULT_VEHTYPE" speedFactor="0.80" vaporized=""/>
    <tripinfo id="8_33" depart="33.00" departLane="133_0" departPos="5.10" departSpeed="0.00" departDelay="0.00" arrival="314.00" arrivalLane="08_0" arrivalPos="492.80" arrivalSpeed="10.27" duration="281.00" routeLength="2494.90" waitingTime="53.00" waitingCount="3" stopTime="0.00" timeLoss="87.84" rerouteNo="0" devices="tripinfo_8_33" vType="DEFAULT_VEHTYPE" speedFactor="0.97" vaporized=""/>
    <tripinfo id="51_192" depart="192.00" departLane="187_0" departPos="5.10" departSpeed="0.00" departDelay="0.00" arrival="316.00" arrivalLane="312_0" arrivalPos="492.80" arrivalSpeed="12.43" duration="124.00" routeLength="1494.90" waitingTime="18.00" waitingCount="2" stopTime="0.00" timeLoss="42.70" rerouteNo="0" devices="tripinfo_51_192" vType="DEFAULT_VEHTYPE" speedFactor="1.20" vaporized=""/>
    <tripinfo id="50_189" depart="189.00" departLane="165_0" departPos="5.10" departSpeed="0.00" departDelay="0.00" arrival="320.00" arrivalLane="110_0" arrivalPos="492.80" arrivalSpeed="18.02" duration="131.00" routeLength="1494.90" waitingTime="7.00" waitingCount="2" stopTime="0.00" timeLoss="28.63" rerouteNo="0" devices="tripinfo_50_189" vType="DEFAULT_VEHTYPE" speedFactor="0.95" vaporized=""/>
    <tripinfo id="56_212" depart="212.00" departLane="176_0" departPos="5.10" departSpeed="0.00" departDelay="0.00" arrival="320.00" arrivalLane="211_0" arrivalPos="492.80" arrivalSpeed="12.88" duration="108.00" routeLength="1494.90" waitingTime="0.00" waitingCount="0" stopTime="0.00" timeLoss="11.18" rerouteNo="0" devices="tripinfo_56_212" vType="DEFAULT_VEHTYPE" speedFactor="1.20" vaporized=""/>
    <tripinfo id="55_209" depart="209.00" departLane="187_0" departPos="5.10" departSpeed="0.00" departDelay="0.00" arrival="324.00" arrivalLane="312_0" arrivalPos="492.80" arrivalSpeed="10.71" duration="115.00" routeLength="1494.90" waitingTime="6.00" waitingCount="1" stopTime="0.00" timeLoss="20.78" rerouteNo="0" devices="tripinfo_55_209" vType="DEFAULT_VEHTYPE" speedFactor="1.03" vaporized=""/>
    <tripinfo id="59_223" depart="223.00" departLane="90_0" departPos="5.10" departSpeed="0.00" departDelay="0.00" arrival="327.00" arrivalLane="415_0" arrivalPos="492.80" arrivalSpeed="10.32" duration="104.00" routeLength="1494.90" waitingTime="0.00" waitingCount="0" stopTime="0.00" timeLoss="8.79" rerouteNo="0" devices="tripinfo_59_223" vType="DEFAULT_VEHTYPE" speedFactor="1.02" vaporized=""/>
    <tripinfo id="26_93" depart="93.00" departLane="197_0" departPos="5.10" departSpeed="0.00" departDelay="0.00" arrival="350.00" arrivalLane="414_0" arrivalPos="492.80" arrivalSpeed="9.18" duration="257.00" routeLength="2494.90" waitingTime="22.00" waitingCount="3" stopTime="0.00" timeLoss="54.87" rerouteNo="0" devices="tripinfo_26_93" vType="DEFAULT_VEHTYPE" speedFactor="0.92" vaporized=""/>
    <tripinfo id="60_225" depart="225.00" departLane="176_0" departPos="5.10" departSpeed="0.00" departDelay="0.00" arrival="351.00" arrivalLane="211_0" arrivalPos="492.80" arrivalSpeed="12.42" duration="126.00" routeLength="1494.90" waitingTime="5.00" waitingCount="1" stopTime="0.00" timeLoss="23.44" rerouteNo="0" devices="tripinfo_60_225" vType="DEFAULT_VEHTYPE" speedFactor="1.13" vaporized=""/>
    <tripinfo id="37_138" depart="138.00" departLane="80_0" departPos="5.10" departSpeed="0.00" departDelay="0.00" arrival="368.00" arrivalLane="313_0" arrivalPos="492.80" arrivalSpeed="17.71" duration="230.00" routeLength="2494.90" waitingTime="18.00" waitingCount="2" stopTime="0.00" timeLoss="50.57" rerouteNo="0" devices="tripinfo_37_138" vType="DEFAULT_VEHTYPE" speedFactor="0.93" vaporized=""/>
    <tripinfo id="67_248" depart="248.00" departLane="123_0" departPos="5.10" departSpeed="0.00" departDelay="0.00" arrival="379.00" arrivalLane="718_0" arrivalPos="492.80" arrivalSpeed="11.01" duration="131.00" routeLength="1494.90" waitingTime="0.00" waitingCount="0" stopTime="0.00" timeLoss="19.86" rerouteNo="0" devices="tripinfo_67_248" vType="DEFAULT_VEHTYPE" speedFactor="1.04" vaporized=""/>
    <tripinfo id="70_262" depart="262.00" departLane="154_0" departPos="5.10" departSpeed="0.00" departDelay="0.00" arrival="380.00" arrivalLane="09_0" arrivalPos="492.80" arrivalSpeed="11.35" duration="118.00" routeLength="1494.90" waitingTime="0.00" waitingCount="0" stopTime="0.00" timeLoss="9.02" rerouteNo="0" devices="tripinfo_70_262" vType="DEFAULT_VEHTYPE" speedFactor="1.06" vaporized=""/>
    <tripinfo id="68_250" depart="250.00" departLane="176_0" departPos="5.10" departSpeed="0.00" departDelay="0.00" arrival="402.00" arrivalLane="211_0" arrivalPos="492.80" arrivalSpeed="10.49" duration="152.00" routeLength="1494.90" waitingTime="13.00" waitingCount="1" stopTime="0.00" timeLoss="34.24" rerouteNo="0" devices="tripinfo_68_250" vType="DEFAULT_VEHTYPE" speedFactor="0.98" vaporized=""/>
    <tripinfo id="74_284" depart="284.00" departLane="165_0" departPos="5.10" departSpeed="0.00" departDelay="0.00" arrival="410.00" arrivalLane="110_0" arrivalPos="492.80" arrivalSpeed="15.60" duration="126.00" routeLength="1494.90" waitingTime="0.00" waitingCount="0" stopTime="0.00" timeLoss="11.43" rerouteNo="0" devices="tripinfo_74_284" vType="DEFAULT_VEHTYPE" speedFactor="0.84" vaporized=""/>
    <tripinfo id="38_140" depart="141.00" departLane="80_0" departPos="5.10" departSpeed="0.00" departDelay="1.00" arrival="416.00" arrivalLane="313_0" arrivalPos="492.80" arrivalSpeed="16.80" duration="275.00" routeLength="2494.90" waitingTime="48.00" waitingCount="4" stopTime="0.00" timeLoss="86.78" rerouteNo="0" devices="tripinfo_38_140" vType="DEFAULT_VEHTYPE" speedFactor="0.89" vaporized=""/>
    <tripinfo id="76_297" depart="297.00" departLane="90_0" departPos="5.10" departSpeed="0.00" departDelay="0.00" arrival="421.00" arrivalLane="415_0" arrivalPos="492.80" arrivalSpeed="9.53" duration="124.00" routeLength="1494.90" waitingTime="0.00" waitingCount="0" stopTime="0.00" timeLoss="11.85" rerouteNo="0" devices="tripinfo_76_297" vType="DEFAULT_VEHTYPE" speedFactor="0.86" vaporized=""/>
    <tripinfo id="43_164" depart="164.00" departLane="144_0" departPos="5.10" departSpeed="0.00" departDelay="0.00" arrival="424.00" arrivalLane="719_0" arrivalPos="492.80" arrivalSpeed="8.03" duration="260.00" routeLength="2494.90" waitingTime="19.00" waitingCount="2" stopTime="0.00" timeLoss="50.40" rerouteNo="0" devices="tripinfo_43_164" vType="DEFAULT_VEHTYPE" speedFactor="0.80" vaporized=""/>
    <tripinfo id="83_331" depart="331.00" departLane="112_0" departPos="5.10" departSpeed="0.00" departDelay="0.00" arrival="425.00" arrivalLane="617_0" arrivalPos="492.80" arrivalSpeed="13.08" duration="94.00" routeLength="1494.90" waitingTime="0.00" waitingCount="0" stopTime="0.00" timeLoss="15.01" rerouteNo="0" devices="tripinfo_83_331" vType="DEFAULT_VEHTYPE" speedFactor="1.23" vaporized=""/>
    <tripinfo id="78_299" depart="299.00" departLane="154_0" departPos="5.10" departSpeed="0.00" departDelay="0.00" arrival="433.00" arrivalLane="09_0" arrivalPos="492.80" arrivalSpeed="10.15" duration="134.00" routeLength="1494.90" waitingTime="0.00" waitingCount="0" stopTime="0.00" timeLoss="12.03" rerouteNo="0" devices="tripinfo_78_299" vType="DEFAULT_VEHTYPE" speedFactor="0.95" vaporized=""/>
    <tripinfo id="44_166" depart="166.00" departLane="80_0" departPos="5.10" departSpeed="0.00" departDelay="0.00" arrival="436.00" arrivalLane="313_0" arrivalPos="492.80" arrivalSpeed="21.98" duration="270.00" routeLength="2494.90" waitingTime="62.00" waitingCount="6" stopTime="0.00" timeLoss="126.48" rerouteNo="0" devices="tripinfo_44_166" vType="DEFAULT_VEHTYPE" speedFactor="1.17" vaporized=""/>
    <tripinfo id="81_316" depart="316.00" departLane="90_0" departPos="5.10" departSpeed="0.00" departDelay="0.00" arrival="446.00" arrivalLane="415_0" arrivalPos="492.80" arrivalSpeed="8.65" duration="130.00" routeLength="1494.90" waitingTime="1.00" waitingCount="1" stopTime="0.00" timeLoss="17.62" rerouteNo="0" devices="tripinfo_81_316" vType="DEFAULT_VEHTYPE" speedFactor="0.86" vaporized=""/>
    <tripinfo id="82_323" depart="323.00" departLane="90_0" departPos="5.10" departSpeed="0.00" departDelay="0.00" arrival="448.00" arrivalLane="415_0" arrivalPos="492.80" arrivalSpeed="12.07" duration="125.00" routeLength="1494.90" waitingTime="1.00" waitingCount="1" stopTime="0.00" timeLoss="36.47" rerouteNo="0" devices="tripinfo_82_323" vType="DEFAULT_VEHTYPE" speedFactor="1.09" vaporized=""/>
    <tripinfo id="88_343" depart="343.00" departLane="90_0" departPos="5.10" departSpeed="0.00" departDelay="0.00" arrival="450.00" arrivalLane="415_0" arrivalPos="492.80" arrivalSpeed="12.50" duration="107.00" routeLength="1494.90" waitingTime="0.00" waitingCount="0" stopTime="0.00" timeLoss="22.77" rerouteNo="0" devices="tripinfo_88_343" vType="DEFAULT_VEHTYPE" speedFactor="1.15" vaporized=""/>
    <tripinfo id="89_351" depart="351.00" departLane="90_0" departPos="5.10" departSpeed="0.00" departDelay="0.00" arrival="454.00" arrivalLane="415_0" arrivalPos="492.80" arrivalSpeed="11.42" duration="103.00" routeLength="1494.90" waitingTime="0.00" waitingCount="0" stopTime="0.00" timeLoss="8.57" rerouteNo="0" devices="tripinfo_89_351" vType="DEFAULT_VEHTYPE" speedFactor="1.03" vaporized=""/>
    <tripinfo id="90_352" depart="354.00" departLane="90_0" departPos="5.10" departSpeed="0.00" departDelay="2.00" arrival="456.00" arrivalLane="415_0" arrivalPos="492.80" arrivalSpeed="12.10" duration="102.00" routeLength="1494.90" waitingTime="0.00" waitingCount="0" stopTime="0.00" timeLoss="14.33" rerouteNo="0" devices="tripinfo_90_352" vType="DEFAULT_VEHTYPE" speedFactor="1.11" vaporized=""/>
    <tripinfo id="86_340" depart="340.00" departLane="165_0" departPos="5.10" departSpeed="0.00" departDelay="0.00" arrival="457.00" arrivalLane="110_0" arrivalPos="492.80" arrivalSpeed="17.77" duration="117.00" routeLength="1494.90" waitingTime="0.00" waitingCount="0" stopTime="0.00" timeLoss="15.50" rerouteNo="0" devices="tripinfo_86_340" vType="DEFAULT_VEHTYPE" speedFactor="0.95" vaporized=""/>
    <tripinfo id="94_358" depart="358.00" departLane="90_0" departPos="5.10" departSpeed="0.00" departDelay="0.00" arrival="460.00" arrivalLane="415_0" arrivalPos="492.80" arrivalSpeed="11.92" duration="102.00" routeLength="1494.90" waitingTime="0.00" waitingCount="0" stopTime="0.00" timeLoss="12.75" rerouteNo="0" devices="tripinfo_94_358" vType="DEFAULT_VEHTYPE" speedFactor="1.09" vaporized=""/>
    <tripinfo id="11_46" depart="46.00" departLane="133_0" departPos="5.10" departSpeed="0.00" departDelay="0.00" arrival="469.00" arrivalLane="08_0" arrivalPos="492.80" arrivalSpeed="10.18" duration="423.00" routeLength="2494.90" waitingTime="186.00" waitingCount="3" stopTime="0.00" timeLoss="227.85" rerouteNo="0" devices="tripinfo_11_46" vType="DEFAULT_VEHTYPE" speedFactor="0.95" vaporized=""/>
    <tripinfo id="87_342" depart="343.00" departLane="165_0" departPos="5.10" departSpeed="0.00" departDelay="1.00" arrival="472.00" arrivalLane="110_0" arrivalPos="492.80" arrivalSpeed="14.80" duration="129.00" routeLength="1494.90" waitingTime="0.00" waitingCount="0" stopTime="0.00" timeLoss="10.65" rerouteNo="0" devices="tripinfo_87_342" vType="DEFAULT_VEHTYPE" speedFactor="0.81" vaporized=""/>
    <tripinfo id="85_336" depart="336.00" departLane="101_0" departPos="5.10" departSpeed="0.00" departDelay="0.00" arrival="474.00" arrivalLane="516_0" arrivalPos="492.80" arrivalSpeed="9.95" duration="138.00" routeLength="1494.90" waitingTime="0.00" waitingCount="0" stopTime="0.00" timeLoss="12.45" rerouteNo="0" devices="tripinfo_85_336" vType="DEFAULT_VEHTYPE" speedFactor="0.92" vaporized=""/>
    <tripinfo id="91_353" depart="353.00" departLane="176_0" departPos="5.10" departSpeed="0.00" departDelay="0.00" arrival="486.00" arrivalLane="211_0" arrivalPos="492.80" arrivalSpeed="11.39" duration="133.00" routeLength="1494.90" waitingTime="9.00" waitingCount="1" stopTime="0.00" timeLoss="26.60" rerouteNo="0" devices="tripinfo_91_353" vType="DEFAULT_VEHTYPE" speedFactor="1.09" vaporized=""/>
    <tripinfo id="96_382" depart="382.00" departLane="165_0" departPos="5.10" departSpeed="0.00" departDelay="0.00" arrival="495.00" arrivalLane="110_0" arrivalPos="492.80" arrivalSpeed="19.67" duration="113.00" routeLength="1494.90" waitingTime="4.00" waitingCount="1" stopTime="0.00" timeLoss="19.21" rerouteNo="0" devices="tripinfo_96_382" vType="DEFAULT_VEHTYPE" speedFactor="1.03" vaporized=""/>
    <tripinfo id="93_356" depart="356.00" departLane="123_0" departPos="5.10" departSpeed="0.00" departDelay="0.00" arrival="505.00" arrivalLane="718_0" arrivalPos="492.80" arrivalSpeed="9.08" duration="149.00" routeLength="1494.90" waitingTime="0.00" waitingCount="0" stopTime="0.00" timeLoss="12.71" rerouteNo="0" devices="tripinfo_93_356" vType="DEFAULT_VEHTYPE" speedFactor="0.85" vaporized=""/>
    <tripinfo id="98_389" depart="389.00" departLane="165_0" departPos="5.10" departSpeed="0.00" departDelay="0.00" arrival="515.00" arrivalLane="110_0" arrivalPos="492.80" arrivalSpeed="16.79" duration="126.00" routeLength="1494.90" waitingTime="3.00" waitingCount="1" stopTime="0.00" timeLoss="18.33" rerouteNo="0" devices="tripinfo_98_389" vType="DEFAULT_VEHTYPE" speedFactor="0.90" vaporized=""/>
    <tripinfo id="97_384" depart="384.00" departLane="123_0" departPos="5.10" departSpeed="0.00" departDelay="0.00" arrival="519.00" arrivalLane="718_0" arrivalPos="492.80" arrivalSpeed="10.45" duration="135.00" routeLength="1494.90" waitingTime="0.00" waitingCount="0" stopTime="0.00" timeLoss="14.86" rerouteNo="0" devices="tripinfo_97_384" vType="DEFAULT_VEHTYPE" speedFactor="0.96" vaporized=""/>