<?xml version="1.0" encoding="UTF-8"?>

<!-- generated on Thu 17 Oct 2019 12:57:32 PM CEST by Eclipse SUMO GUI Version 1.3.0
<configuration xmlns:xsi="http://www.w3.org/2001/XMLSchema-instance" xsi:noNamespaceSchemaLocation="http://sumo.dlr.de/xsd/sumoConfiguration.xsd">

    <input>
        <net-file value="/home/azlaan/PycharmProjects/otherprojects/aienvs/aienvs/Sumo/../../scenarios/Sumo/cross_network/cross.net.xml"/>
        <route-files value="/home/azlaan/PycharmProjects/otherprojects/aienvs/aienvs/Sumo/../../scenarios/Sumo/cross_network/19669_routes.rou.xml"/>
    </input>

    <output>
        <tripinfo-output value="/home/azlaan/PycharmProjects/otherprojects/aienvs/aienvs/Sumo/../../test/Stats/tripinfo.xml"/>
    </output>

    <time>
        <begin value="0"/>
    </time>

    <report>
        <verbose value="true"/>
        <no-step-log value="true"/>
    </report>

    <traci_server>
        <remote-port value="19669"/>
    </traci_server>

    <random_number>
        <seed value="16753"/>
    </random_number>

</configuration>
-->

<tripinfos xmlns:xsi="http://www.w3.org/2001/XMLSchema-instance" xsi:noNamespaceSchemaLocation="http://sumo.dlr.de/xsd/tripinfo_file.xsd">
</tripinfos>
