<?xml version="1.0" encoding="UTF-8"?>

<!-- generated on Sat Sep 28 01:48:18 2019 by Eclipse SUMO Version 1.3.0
<configuration xmlns:xsi="http://www.w3.org/2001/XMLSchema-instance" xsi:noNamespaceSchemaLocation="http://sumo.dlr.de/xsd/sumoConfiguration.xsd">

    <input>
        <net-file value="/home/azlaan/PycharmProjects/otherprojects/aienvs/aienvs/Sumo/../../scenarios/Sumo/cross_network/cross.net.xml"/>
        <route-files value="/home/azlaan/PycharmProjects/otherprojects/aienvs/aienvs/Sumo/../../scenarios/Sumo/cross_network/17374_routes.rou.xml"/>
    </input>

    <output>
        <tripinfo-output value="/home/azlaan/PycharmProjects/otherprojects/aienvs/aienvs/Sumo/../../test/Stats/tripinfo.xml"/>
    </output>

    <time>
        <begin value="0"/>
    </time>

    <report>
        <verbose value="true"/>
        <no-step-log value="true"/>
    </report>

    <traci_server>
        <remote-port value="17374"/>
    </traci_server>

    <random_number>
        <seed value="1570951230"/>
    </random_number>

</configuration>
-->

<tripinfos xmlns:xsi="http://www.w3.org/2001/XMLSchema-instance" xsi:noNamespaceSchemaLocation="http://sumo.dlr.de/xsd/tripinfo_file.xsd">
    <tripinfo id="1_1" depart="1.00" departLane="54o_0" departPos="5.10" departSpeed="0.00" departDelay="0.00" arrival="81.00" arrivalLane="53i_0" arrivalPos="10.00" arrivalSpeed="12.76" duration="80.00" routeLength="1015.10" waitingTime="0.00" waitingCount="0" stopTime="0.00" timeLoss="8.12" rerouteNo="0" devices="tripinfo_1_1" vType="DEFAULT_VEHTYPE" speedFactor="0.99" vaporized=""/>
    <tripinfo id="2_2" depart="4.00" departLane="54o_0" departPos="5.10" departSpeed="0.00" departDelay="2.00" arrival="83.00" arrivalLane="53i_0" arrivalPos="10.00" arrivalSpeed="13.21" duration="79.00" routeLength="1015.10" waitingTime="0.00" waitingCount="0" stopTime="0.00" timeLoss="12.12" rerouteNo="0" devices="tripinfo_2_2" vType="DEFAULT_VEHTYPE" speedFactor="1.07" vaporized=""/>
    <tripinfo id="3_3" depart="7.00" departLane="54o_0" departPos="5.10" departSpeed="0.00" departDelay="4.00" arrival="91.00" arrivalLane="53i_0" arrivalPos="10.00" arrivalSpeed="12.61" duration="84.00" routeLength="1015.10" waitingTime="0.00" waitingCount="0" stopTime="0.00" timeLoss="9.61" rerouteNo="0" devices="tripinfo_3_3" vType="DEFAULT_VEHTYPE" speedFactor="0.97" vaporized=""/>
    <tripinfo id="4_4" depart="4.00" departLane="53o_0" departPos="5.10" departSpeed="0.00" departDelay="0.00" arrival="92.00" arrivalLane="54i_0" arrivalPos="10.00" arrivalSpeed="12.00" duration="88.00" routeLength="1015.10" waitingTime="0.00" waitingCount="0" stopTime="0.00" timeLoss="8.63" rerouteNo="0" devices="tripinfo_4_4" vType="DEFAULT_VEHTYPE" speedFactor="0.90" vaporized=""/>
    <tripinfo id="5_12" depart="12.00" departLane="53o_0" departPos="5.10" departSpeed="0.00" departDelay="0.00" arrival="94.00" arrivalLane="54i_0" arrivalPos="10.00" arrivalSpeed="12.25" duration="82.00" routeLength="1015.10" waitingTime="0.00" waitingCount="0" stopTime="0.00" timeLoss="12.02" rerouteNo="0" devices="tripinfo_5_12" vType="DEFAULT_VEHTYPE" speedFactor="1.02" vaporized=""/>
    <tripinfo id="6_18" depart="18.00" departLane="53o_0" departPos="5.10" departSpeed="0.00" departDelay="0.00" arrival="96.00" arrivalLane="54i_0" arrivalPos="10.00" arrivalSpeed="13.45" duration="78.00" routeLength="1015.10" waitingTime="0.00" waitingCount="0" stopTime="0.00" timeLoss="9.73" rerouteNo="0" devices="tripinfo_6_18" vType="DEFAULT_VEHTYPE" speedFactor="1.05" vaporized=""/>
    <tripinfo id="7_19" depart="21.00" departLane="53o_0" departPos="5.10" departSpeed="0.00" departDelay="2.00" arrival="98.00" arrivalLane="54i_0" arrivalPos="10.00" arrivalSpeed="12.82" duration="77.00" routeLength="1015.10" waitingTime="0.00" waitingCount="0" stopTime="0.00" timeLoss="11.00" rerouteNo="0" devices="tripinfo_7_19" vType="DEFAULT_VEHTYPE" speedFactor="1.10" vaporized=""/>
    <tripinfo id="9_21" depart="21.00" departLane="54o_0" departPos="5.10" departSpeed="0.00" departDelay="0.00" arrival="98.00" arrivalLane="53i_0" arrivalPos="10.00" arrivalSpeed="12.59" duration="77.00" routeLength="1015.10" waitingTime="0.00" waitingCount="0" stopTime="0.00" timeLoss="8.01" rerouteNo="0" devices="tripinfo_9_21" vType="DEFAULT_VEHTYPE" speedFactor="1.05" vaporized=""/>
    <tripinfo id="8_20" depart="24.00" departLane="53o_0" departPos="5.10" departSpeed="0.00" departDelay="4.00" arrival="100.00" arrivalLane="54i_0" arrivalPos="10.00" arrivalSpeed="12.98" duration="76.00" routeLength="1015.10" waitingTime="0.00" waitingCount="0" stopTime="0.00" timeLoss="9.37" rerouteNo="0" devices="tripinfo_8_20" vType="DEFAULT_VEHTYPE" speedFactor="1.08" vaporized=""/>
    <tripinfo id="12_24" depart="27.00" departLane="53o_0" departPos="5.10" departSpeed="0.00" departDelay="3.00" arrival="102.00" arrivalLane="54i_0" arrivalPos="10.00" arrivalSpeed="13.05" duration="75.00" routeLength="1015.10" waitingTime="0.00" waitingCount="0" stopTime="0.00" timeLoss="9.40" rerouteNo="0" devices="tripinfo_12_24" vType="DEFAULT_VEHTYPE" speedFactor="1.10" vaporized=""/>
    <tripinfo id="14_29" depart="30.00" departLane="53o_0" departPos="5.10" departSpeed="0.00" departDelay="1.00" arrival="113.00" arrivalLane="54i_0" arrivalPos="10.00" arrivalSpeed="11.81" duration="83.00" routeLength="1015.10" waitingTime="0.00" waitingCount="0" stopTime="0.00" timeLoss="8.45" rerouteNo="0" devices="tripinfo_14_29" vType="DEFAULT_VEHTYPE" speedFactor="0.97" vaporized=""/>
    <tripinfo id="16_31" depart="33.00" departLane="53o_0" departPos="5.10" departSpeed="0.00" departDelay="2.00" arrival="114.00" arrivalLane="54i_0" arrivalPos="10.00" arrivalSpeed="12.08" duration="81.00" routeLength="1015.10" waitingTime="0.00" waitingCount="0" stopTime="0.00" timeLoss="18.87" rerouteNo="0" devices="tripinfo_16_31" vType="DEFAULT_VEHTYPE" speedFactor="1.15" vaporized=""/>
    <tripinfo id="17_33" depart="36.00" departLane="53o_0" departPos="5.10" departSpeed="0.00" departDelay="3.00" arrival="119.00" arrivalLane="54i_0" arrivalPos="10.00" arrivalSpeed="11.62" duration="83.00" routeLength="1015.10" waitingTime="0.00" waitingCount="0" stopTime="0.00" timeLoss="9.08" rerouteNo="0" devices="tripinfo_17_33" vType="DEFAULT_VEHTYPE" speedFactor="0.97" vaporized=""/>
    <tripinfo id="18_35" depart="39.00" departLane="53o_0" departPos="5.10" departSpeed="0.00" departDelay="4.00" arrival="121.00" arrivalLane="54i_0" arrivalPos="10.00" arrivalSpeed="12.82" duration="82.00" routeLength="1015.10" waitingTime="0.00" waitingCount="0" stopTime="0.00" timeLoss="17.91" rerouteNo="0" devices="tripinfo_18_35" vType="DEFAULT_VEHTYPE" speedFactor="1.12" vaporized=""/>
    <tripinfo id="20_38" depart="42.00" departLane="53o_0" departPos="5.10" departSpeed="0.00" departDelay="4.00" arrival="123.00" arrivalLane="54i_0" arrivalPos="10.00" arrivalSpeed="14.11" duration="81.00" routeLength="1015.10" waitingTime="0.00" waitingCount="0" stopTime="0.00" timeLoss="15.77" rerouteNo="0" devices="tripinfo_20_38" vType="DEFAULT_VEHTYPE" speedFactor="1.11" vaporized=""/>
    <tripinfo id="22_42" depart="45.00" departLane="53o_0" departPos="5.10" departSpeed="0.00" departDelay="3.00" arrival="125.00" arrivalLane="54i_0" arrivalPos="10.00" arrivalSpeed="12.60" duration="80.00" routeLength="1015.10" waitingTime="0.00" waitingCount="0" stopTime="0.00" timeLoss="12.34" rerouteNo="0" devices="tripinfo_22_42" vType="DEFAULT_VEHTYPE" speedFactor="1.06" vaporized=""/>
    <tripinfo id="26_59" depart="59.00" departLane="54o_0" departPos="5.10" departSpeed="0.00" departDelay="0.00" arrival="132.00" arrivalLane="53i_0" arrivalPos="10.00" arrivalSpeed="13.15" duration="73.00" routeLength="1015.10" waitingTime="0.00" waitingCount="0" stopTime="0.00" timeLoss="9.03" rerouteNo="0" devices="tripinfo_26_59" vType="DEFAULT_VEHTYPE" speedFactor="1.12" vaporized=""/>
    <tripinfo id="24_47" depart="48.00" departLane="53o_0" departPos="5.10" departSpeed="0.00" departDelay="1.00" arrival="136.00" arrivalLane="54i_0" arrivalPos="10.00" arrivalSpeed="10.79" duration="88.00" routeLength="1015.10" waitingTime="0.00" waitingCount="0" stopTime="0.00" timeLoss="8.51" rerouteNo="0" devices="tripinfo_24_47" vType="DEFAULT_VEHTYPE" speedFactor="0.91" vaporized=""/>
    <tripinfo id="27_60" depart="60.00" departLane="53o_0" departPos="5.10" departSpeed="0.00" departDelay="0.00" arrival="140.00" arrivalLane="54i_0" arrivalPos="10.00" arrivalSpeed="12.46" duration="80.00" routeLength="1015.10" waitingTime="0.00" waitingCount="0" stopTime="0.00" timeLoss="8.73" rerouteNo="0" devices="tripinfo_27_60" vType="DEFAULT_VEHTYPE" speedFactor="1.01" vaporized=""/>
    <tripinfo id="31_68" depart="68.00" departLane="54o_0" departPos="5.10" departSpeed="0.00" departDelay="0.00" arrival="147.00" arrivalLane="53i_0" arrivalPos="10.00" arrivalSpeed="12.91" duration="79.00" routeLength="1015.10" waitingTime="0.00" waitingCount="0" stopTime="0.00" timeLoss="8.60" rerouteNo="0" devices="tripinfo_31_68" vType="DEFAULT_VEHTYPE" speedFactor="1.02" vaporized=""/>
    <tripinfo id="29_63" depart="63.00" departLane="53o_0" departPos="5.10" departSpeed="0.00" departDelay="0.00" arrival="151.00" arrivalLane="54i_0" arrivalPos="10.00" arrivalSpeed="11.34" duration="88.00" routeLength="1015.10" waitingTime="0.00" waitingCount="0" stopTime="0.00" timeLoss="8.73" rerouteNo="0" devices="tripinfo_29_63" vType="DEFAULT_VEHTYPE" speedFactor="0.91" vaporized=""/>
    <tripinfo id="30_67" depart="67.00" departLane="53o_0" departPos="5.10" departSpeed="0.00" departDelay="0.00" arrival="153.00" arrivalLane="54i_0" arrivalPos="10.00" arrivalSpeed="12.31" duration="86.00" routeLength="1015.10" waitingTime="0.00" waitingCount="0" stopTime="0.00" timeLoss="8.52" rerouteNo="0" devices="tripinfo_30_67" vType="DEFAULT_VEHTYPE" speedFactor="0.93" vaporized=""/>
    <tripinfo id="32_69" depart="71.00" departLane="54o_0" departPos="5.10" departSpeed="0.00" departDelay="2.00" arrival="155.00" arrivalLane="53i_0" arrivalPos="10.00" arrivalSpeed="11.76" duration="84.00" routeLength="1015.10" waitingTime="0.00" waitingCount="0" stopTime="0.00" timeLoss="9.19" rerouteNo="0" devices="tripinfo_32_69" vType="DEFAULT_VEHTYPE" speedFactor="0.96" vaporized=""/>
    <tripinfo id="38_86" depart="86.00" departLane="54o_0" departPos="5.10" departSpeed="0.00" departDelay="0.00" arrival="157.00" arrivalLane="53i_0" arrivalPos="10.00" arrivalSpeed="13.65" duration="71.00" routeLength="1015.10" waitingTime="0.00" waitingCount="0" stopTime="0.00" timeLoss="9.36" rerouteNo="0" devices="tripinfo_38_86" vType="DEFAULT_VEHTYPE" speedFactor="1.16" vaporized=""/>
    <tripinfo id="37_83" depart="83.00" departLane="53o_0" departPos="5.10" departSpeed="0.00" departDelay="0.00" arrival="162.00" arrivalLane="54i_0" arrivalPos="10.00" arrivalSpeed="11.97" duration="79.00" routeLength="1015.10" waitingTime="0.00" waitingCount="0" stopTime="0.00" timeLoss="8.96" rerouteNo="0" devices="tripinfo_37_83" vType="DEFAULT_VEHTYPE" speedFactor="1.03" vaporized=""/>
    <tripinfo id="49_102" depart="102.00" departLane="53o_0" departPos="5.10" departSpeed="0.00" departDelay="0.00" arrival="175.00" arrivalLane="54i_0" arrivalPos="10.00" arrivalSpeed="13.28" duration="73.00" routeLength="1015.10" waitingTime="0.00" waitingCount="0" stopTime="0.00" timeLoss="8.67" rerouteNo="0" devices="tripinfo_49_102" vType="DEFAULT_VEHTYPE" speedFactor="1.12" vaporized=""/>
    <tripinfo id="42_93" depart="102.00" departLane="54o_0" departPos="5.10" departSpeed="0.00" departDelay="9.00" arrival="178.00" arrivalLane="53i_0" arrivalPos="10.00" arrivalSpeed="13.14" duration="76.00" routeLength="1015.10" waitingTime="0.00" waitingCount="0" stopTime="0.00" timeLoss="9.13" rerouteNo="0" devices="tripinfo_42_93" vType="DEFAULT_VEHTYPE" speedFactor="1.07" vaporized=""/>
    <tripinfo id="44_95" depart="105.00" departLane="54o_0" departPos="5.10" departSpeed="0.00" departDelay="10.00" arrival="184.00" arrivalLane="53i_0" arrivalPos="10.00" arrivalSpeed="12.40" duration="79.00" routeLength="1015.10" waitingTime="0.00" waitingCount="0" stopTime="0.00" timeLoss="8.43" rerouteNo="0" devices="tripinfo_44_95" vType="DEFAULT_VEHTYPE" speedFactor="1.02" vaporized=""/>
    <tripinfo id="46_99" depart="108.00" departLane="54o_0" departPos="5.10" departSpeed="0.00" departDelay="9.00" arrival="186.00" arrivalLane="53i_0" arrivalPos="10.00" arrivalSpeed="13.18" duration="78.00" routeLength="1015.10" waitingTime="0.00" waitingCount="0" stopTime="0.00" timeLoss="15.26" rerouteNo="0" devices="tripinfo_46_99" vType="DEFAULT_VEHTYPE" speedFactor="1.15" vaporized=""/>
    <tripinfo id="47_100" depart="114.00" departLane="54o_0" departPos="5.10" departSpeed="0.00" departDelay="14.00" arrival="198.00" arrivalLane="53i_0" arrivalPos="10.00" arrivalSpeed="12.32" duration="84.00" routeLength="1015.10" waitingTime="0.00" waitingCount="0" stopTime="0.00" timeLoss="9.24" rerouteNo="0" devices="tripinfo_47_100" vType="DEFAULT_VEHTYPE" speedFactor="0.96" vaporized=""/>
    <tripinfo id="57_128" depart="128.00" departLane="53o_0" departPos="5.10" departSpeed="0.00" departDelay="0.00" arrival="210.00" arrivalLane="54i_0" arrivalPos="10.00" arrivalSpeed="12.06" duration="82.00" routeLength="1015.10" waitingTime="0.00" waitingCount="0" stopTime="0.00" timeLoss="9.94" rerouteNo="0" devices="tripinfo_57_128" vType="DEFAULT_VEHTYPE" speedFactor="1.00" vaporized=""/>
    <tripinfo id="64_142" depart="142.00" departLane="53o_0" departPos="5.10" departSpeed="0.00" departDelay="0.00" arrival="212.00" arrivalLane="54i_0" arrivalPos="10.00" arrivalSpeed="14.09" duration="70.00" routeLength="1015.10" waitingTime="0.00" waitingCount="0" stopTime="0.00" timeLoss="10.00" rerouteNo="0" devices="tripinfo_64_142" vType="DEFAULT_VEHTYPE" speedFactor="1.21" vaporized=""/>
    <tripinfo id="48_101" depart="117.00" departLane="54o_0" departPos="5.10" departSpeed="0.00" departDelay="16.00" arrival="215.00" arrivalLane="53i_0" arrivalPos="10.00" arrivalSpeed="10.48" duration="98.00" routeLength="1015.10" waitingTime="0.00" waitingCount="0" stopTime="0.00" timeLoss="9.38" rerouteNo="0" devices="tripinfo_48_101" vType="DEFAULT_VEHTYPE" speedFactor="0.81" vaporized=""/>
    <tripinfo id="50_103" depart="125.00" departLane="54o_0" departPos="5.10" departSpeed="0.00" departDelay="22.00" arrival="217.00" arrivalLane="53i_0" arrivalPos="10.00" arrivalSpeed="11.21" duration="92.00" routeLength="1015.10" waitingTime="0.00" waitingCount="0" stopTime="0.00" timeLoss="22.13" rerouteNo="0" devices="tripinfo_50_103" vType="DEFAULT_VEHTYPE" speedFactor="1.03" vaporized=""/>
    <tripinfo id="51_105" depart="128.00" departLane="54o_0" departPos="5.10" departSpeed="0.00" departDelay="23.00" arrival="219.00" arrivalLane="53i_0" arrivalPos="10.00" arrivalSpeed="12.60" duration="91.00" routeLength="1015.10" waitingTime="0.00" waitingCount="0" stopTime="0.00" timeLoss="16.77" rerouteNo="0" devices="tripinfo_51_105" vType="DEFAULT_VEHTYPE" speedFactor="0.97" vaporized=""/>
    <tripinfo id="52_112" depart="131.00" departLane="54o_0" departPos="5.10" departSpeed="0.00" departDelay="19.00" arrival="221.00" arrivalLane="53i_0" arrivalPos="10.00" arrivalSpeed="11.78" duration="90.00" routeLength="1015.10" waitingTime="0.00" waitingCount="0" stopTime="0.00" timeLoss="13.13" rerouteNo="0" devices="tripinfo_52_112" vType="DEFAULT_VEHTYPE" speedFactor="0.94" vaporized=""/>
    <tripinfo id="62_135" depart="136.00" departLane="54o_0" departPos="5.10" departSpeed="0.00" departDelay="1.00" arrival="223.00" arrivalLane="53i_0" arrivalPos="10.00" arrivalSpeed="13.34" duration="87.00" routeLength="1015.10" waitingTime="0.00" waitingCount="0" stopTime="0.00" timeLoss="19.35" rerouteNo="0" devices="tripinfo_62_135" vType="DEFAULT_VEHTYPE" speedFactor="1.07" vaporized=""/>
    <tripinfo id="67_145" depart="147.00" departLane="53o_0" departPos="5.10" departSpeed="0.00" departDelay="2.00" arrival="228.00" arrivalLane="54i_0" arrivalPos="10.00" arrivalSpeed="12.96" duration="81.00" routeLength="1015.10" waitingTime="0.00" waitingCount="0" stopTime="0.00" timeLoss="8.37" rerouteNo="0" devices="tripinfo_67_145" vType="DEFAULT_VEHTYPE" speedFactor="0.99" vaporized=""/>
    <tripinfo id="70_150" depart="151.00" departLane="54o_0" departPos="5.10" departSpeed="0.00" departDelay="1.00" arrival="231.00" arrivalLane="53i_0" arrivalPos="10.00" arrivalSpeed="12.55" duration="80.00" routeLength="1015.10" waitingTime="0.00" waitingCount="0" stopTime="0.00" timeLoss="8.83" rerouteNo="0" devices="tripinfo_70_150" vType="DEFAULT_VEHTYPE" speedFactor="1.01" vaporized=""/>
    <tripinfo id="71_152" depart="152.00" departLane="53o_0" departPos="5.10" departSpeed="0.00" departDelay="0.00" arrival="238.00" arrivalLane="54i_0" arrivalPos="10.00" arrivalSpeed="11.00" duration="86.00" routeLength="1015.10" waitingTime="0.00" waitingCount="0" stopTime="0.00" timeLoss="9.11" rerouteNo="0" devices="tripinfo_71_152" vType="DEFAULT_VEHTYPE" speedFactor="0.94" vaporized=""/>
    <tripinfo id="75_165" depart="165.00" departLane="53o_0" departPos="5.10" departSpeed="0.00" departDelay="0.00" arrival="253.00" arrivalLane="54i_0" arrivalPos="10.00" arrivalSpeed="11.90" duration="88.00" routeLength="1015.10" waitingTime="0.00" waitingCount="0" stopTime="0.00" timeLoss="9.39" rerouteNo="0" devices="tripinfo_75_165" vType="DEFAULT_VEHTYPE" speedFactor="0.91" vaporized=""/>
    <tripinfo id="78_174" depart="174.00" departLane="53o_0" departPos="5.10" departSpeed="0.00" departDelay="0.00" arrival="255.00" arrivalLane="54i_0" arrivalPos="10.00" arrivalSpeed="13.51" duration="81.00" routeLength="1015.10" waitingTime="0.00" waitingCount="0" stopTime="0.00" timeLoss="12.98" rerouteNo="0" devices="tripinfo_78_174" vType="DEFAULT_VEHTYPE" speedFactor="1.05" vaporized=""/>
    <tripinfo id="81_179" depart="179.00" departLane="53o_0" departPos="5.10" departSpeed="0.00" departDelay="0.00" arrival="257.00" arrivalLane="54i_0" arrivalPos="10.00" arrivalSpeed="14.10" duration="78.00" routeLength="1015.10" waitingTime="0.00" waitingCount="0" stopTime="0.00" timeLoss="13.99" rerouteNo="0" devices="tripinfo_81_179" vType="DEFAULT_VEHTYPE" speedFactor="1.13" vaporized=""/>
    <tripinfo id="80_178" depart="178.00" departLane="54o_0" departPos="5.10" departSpeed="0.00" departDelay="0.00" arrival="258.00" arrivalLane="53i_0" arrivalPos="10.00" arrivalSpeed="12.79" duration="80.00" routeLength="1015.10" waitingTime="0.00" waitingCount="0" stopTime="0.00" timeLoss="9.17" rerouteNo="0" devices="tripinfo_80_178" vType="DEFAULT_VEHTYPE" speedFactor="1.01" vaporized=""/>
    <tripinfo id="83_187" depart="187.00" departLane="54o_0" departPos="5.10" departSpeed="0.00" departDelay="0.00" arrival="264.00" arrivalLane="53i_0" arrivalPos="10.00" arrivalSpeed="12.86" duration="77.00" routeLength="1015.10" waitingTime="0.00" waitingCount="0" stopTime="0.00" timeLoss="9.16" rerouteNo="0" devices="tripinfo_83_187" vType="DEFAULT_VEHTYPE" speedFactor="1.06" vaporized=""/>
    <tripinfo id="86_192" depart="192.00" departLane="54o_0" departPos="5.10" departSpeed="0.00" departDelay="0.00" arrival="271.00" arrivalLane="53i_0" arrivalPos="10.00" arrivalSpeed="12.94" duration="79.00" routeLength="1015.10" waitingTime="0.00" waitingCount="0" stopTime="0.00" timeLoss="9.94" rerouteNo="0" devices="tripinfo_86_192" vType="DEFAULT_VEHTYPE" speedFactor="1.04" vaporized=""/>
    <tripinfo id="87_194" depart="195.00" departLane="54o_0" departPos="5.10" departSpeed="0.00" departDelay="1.00" arrival="282.00" arrivalLane="53i_0" arrivalPos="10.00" arrivalSpeed="11.27" duration="87.00" routeLength="1015.10" waitingTime="0.00" waitingCount="0" stopTime="0.00" timeLoss="9.08" rerouteNo="0" devices="tripinfo_87_194" vType="DEFAULT_VEHTYPE" speedFactor="0.92" vaporized=""/>
    <tripinfo id="89_201" depart="201.00" departLane="54o_0" departPos="5.10" departSpeed="0.00" departDelay="0.00" arrival="284.00" arrivalLane="53i_0" arrivalPos="10.00" arrivalSpeed="13.45" duration="83.00" routeLength="1015.10" waitingTime="0.00" waitingCount="0" stopTime="0.00" timeLoss="19.51" rerouteNo="0" devices="tripinfo_89_201" vType="DEFAULT_VEHTYPE" speedFactor="1.13" vaporized=""/>
    <tripinfo id="91_204" depart="204.00" departLane="53o_0" departPos="5.10" departSpeed="0.00" departDelay="0.00" arrival="294.00" arrivalLane="54i_0" arrivalPos="10.00" arrivalSpeed="10.35" duration="90.00" routeLength="1015.10" waitingTime="0.00" waitingCount="0" stopTime="0.00" timeLoss="9.65" rerouteNo="0" devices="tripinfo_91_204" vType="DEFAULT_VEHTYPE" speedFactor="0.89" vaporized=""/>
    <tripinfo id="96_216" depart="216.00" departLane="54o_0" departPos="5.10" departSpeed="0.00" departDelay="0.00" arrival="295.00" arrivalLane="53i_0" arrivalPos="10.00" arrivalSpeed="11.76" duration="79.00" routeLength="1015.10" waitingTime="0.00" waitingCount="0" stopTime="0.00" timeLoss="7.87" rerouteNo="0" devices="tripinfo_96_216" vType="DEFAULT_VEHTYPE" speedFactor="1.01" vaporized=""/>
    <tripinfo id="97_218" depart="218.00" departLane="54o_0" departPos="5.10" departSpeed="0.00" departDelay="0.00" arrival="297.00" arrivalLane="53i_0" arrivalPos="10.00" arrivalSpeed="12.01" duration="79.00" routeLength="1015.10" waitingTime="0.00" waitingCount="0" stopTime="0.00" timeLoss="9.98" rerouteNo="0" devices="tripinfo_97_218" vType="DEFAULT_VEHTYPE" speedFactor="1.04" vaporized=""/>
    <tripinfo id="98_220" depart="221.00" departLane="53o_0" departPos="5.10" departSpeed="0.00" departDelay="1.00" arrival="322.00" arrivalLane="54i_0" arrivalPos="10.00" arrivalSpeed="10.53" duration="101.00" routeLength="1015.10" waitingTime="0.00" waitingCount="0" stopTime="0.00" timeLoss="9.96" rerouteNo="0" devices="tripinfo_98_220" vType="DEFAULT_VEHTYPE" speedFactor="0.79" vaporized=""/>
    <tripinfo id="99_223" depart="224.00" departLane="53o_0" departPos="5.10" departSpeed="0.00" departDelay="1.00" arrival="324.00" arrivalLane="54i_0" arrivalPos="10.00" arrivalSpeed="12.80" duration="100.00" routeLength="1015.10" waitingTime="0.00" waitingCount="0" stopTime="0.00" timeLoss="31.93" rerouteNo="0" devices="tripinfo_99_223" vType="DEFAULT_VEHTYPE" speedFactor="1.06" vaporized=""/>
    <tripinfo id="100_230" depart="231.00" departLane="53o_0" departPos="5.10" departSpeed="0.00" departDelay="1.00" arrival="326.00" arrivalLane="54i_0" arrivalPos="10.00" arrivalSpeed="12.80" duration="95.00" routeLength="1015.10" waitingTime="0.00" waitingCount="0" stopTime="0.00" timeLoss="23.58" rerouteNo="0" devices="tripinfo_100_230" vType="DEFAULT_VEHTYPE" speedFactor="1.01" vaporized=""/>
    <tripinfo id="101_231" depart="231.00" departLane="54o_0" departPos="5.10" departSpeed="0.00" departDelay="0.00" arrival="335.00" arrivalLane="53i_0" arrivalPos="10.00" arrivalSpeed="10.66" duration="104.00" routeLength="1015.10" waitingTime="0.00" waitingCount="0" stopTime="0.00" timeLoss="10.69" rerouteNo="0" devices="tripinfo_101_231" vType="DEFAULT_VEHTYPE" speedFactor="0.77" vaporized=""/>
    <tripinfo id="112_263" depart="264.00" departLane="53o_0" departPos="5.10" departSpeed="0.00" departDelay="1.00" arrival="339.00" arrivalLane="54i_0" arrivalPos="10.00" arrivalSpeed="10.75" duration="75.00" routeLength="1015.10" waitingTime="0.00" waitingCount="0" stopTime="0.00" timeLoss="8.01" rerouteNo="0" devices="tripinfo_112_263" vType="DEFAULT_VEHTYPE" speedFactor="1.07" vaporized=""/>
    <tripinfo id="114_268" depart="268.00" departLane="53o_0" departPos="5.10" departSpeed="0.00" departDelay="0.00" arrival="341.00" arrivalLane="54i_0" arrivalPos="10.00" arrivalSpeed="14.65" duration="73.00" routeLength="1015.10" waitingTime="0.00" waitingCount="0" stopTime="0.00" timeLoss="12.62" rerouteNo="0" devices="tripinfo_114_268" vType="DEFAULT_VEHTYPE" speedFactor="1.18" vaporized=""/>
    <tripinfo id="102_250" depart="250.00" departLane="54o_0" departPos="5.10" departSpeed="0.00" departDelay="0.00" arrival="347.00" arrivalLane="53i_0" arrivalPos="10.00" arrivalSpeed="10.01" duration="97.00" routeLength="1015.10" waitingTime="0.00" waitingCount="0" stopTime="0.00" timeLoss="9.20" rerouteNo="0" devices="tripinfo_102_250" vType="DEFAULT_VEHTYPE" speedFactor="0.81" vaporized=""/>
    <tripinfo id="104_252" depart="253.00" departLane="54o_0" departPos="5.10" departSpeed="0.00" departDelay="1.00" arrival="349.00" arrivalLane="53i_0" arrivalPos="10.00" arrivalSpeed="12.87" duration="96.00" routeLength="1015.10" waitingTime="0.00" waitingCount="0" stopTime="0.00" timeLoss="21.40" rerouteNo="0" devices="tripinfo_104_252" vType="DEFAULT_VEHTYPE" speedFactor="0.96" vaporized=""/>
    <tripinfo id="106_254" depart="257.00" departLane="54o_0" departPos="5.10" departSpeed="0.00" departDelay="3.00" arrival="351.00" arrivalLane="53i_0" arrivalPos="10.00" arrivalSpeed="13.85" duration="94.00" routeLength="1015.10" waitingTime="0.00" waitingCount="0" stopTime="0.00" timeLoss="28.00" rerouteNo="0" devices="tripinfo_106_254" vType="DEFAULT_VEHTYPE" speedFactor="1.09" vaporized=""/>
    <tripinfo id="109_259" depart="260.00" departLane="54o_0" departPos="5.10" departSpeed="0.00" departDelay="1.00" arrival="353.00" arrivalLane="53i_0" arrivalPos="10.00" arrivalSpeed="14.12" duration="93.00" routeLength="1015.10" waitingTime="0.00" waitingCount="0" stopTime="0.00" timeLoss="28.73" rerouteNo="0" devices="tripinfo_109_259" vType="DEFAULT_VEHTYPE" speedFactor="1.13" vaporized=""/>
    <tripinfo id="110_260" depart="263.00" departLane="54o_0" departPos="5.10" departSpeed="0.00" departDelay="3.00" arrival="355.00" arrivalLane="53i_0" arrivalPos="10.00" arrivalSpeed="12.61" duration="92.00" routeLength="1015.10" waitingTime="0.00" waitingCount="0" stopTime="0.00" timeLoss="25.11" rerouteNo="0" devices="tripinfo_110_260" vType="DEFAULT_VEHTYPE" speedFactor="1.08" vaporized=""/>
    <tripinfo id="113_264" depart="266.00" departLane="54o_0" departPos="5.10" departSpeed="0.00" departDelay="2.00" arrival="356.00" arrivalLane="53i_0" arrivalPos="10.00" arrivalSpeed="13.03" duration="90.00" routeLength="1015.10" waitingTime="0.00" waitingCount="0" stopTime="0.00" timeLoss="29.42" rerouteNo="0" devices="tripinfo_113_264" vType="DEFAULT_VEHTYPE" speedFactor="1.19" vaporized=""/>
    <tripinfo id="115_282" depart="282.00" departLane="53o_0" departPos="5.10" departSpeed="0.00" departDelay="0.00" arrival="362.00" arrivalLane="54i_0" arrivalPos="10.00" arrivalSpeed="12.35" duration="80.00" routeLength="1015.10" waitingTime="0.00" waitingCount="0" stopTime="0.00" timeLoss="8.44" rerouteNo="0" devices="tripinfo_115_282" vType="DEFAULT_VEHTYPE" speedFactor="1.00" vaporized=""/>
    <tripinfo id="117_287" depart="287.00" departLane="54o_0" departPos="5.10" departSpeed="0.00" departDelay="0.00" arrival="365.00" arrivalLane="53i_0" arrivalPos="10.00" arrivalSpeed="13.01" duration="78.00" routeLength="1015.10" waitingTime="0.00" waitingCount="0" stopTime="0.00" timeLoss="8.36" rerouteNo="0" devices="tripinfo_117_287" vType="DEFAULT_VEHTYPE" speedFactor="1.03" vaporized=""/>
    <tripinfo id="116_285" depart="285.00" departLane="53o_0" departPos="5.10" departSpeed="0.00" departDelay="0.00" arrival="367.00" arrivalLane="54i_0" arrivalPos="10.00" arrivalSpeed="11.38" duration="82.00" routeLength="1015.10" waitingTime="0.00" waitingCount="0" stopTime="0.00" timeLoss="8.46" rerouteNo="0" devices="tripinfo_116_285" vType="DEFAULT_VEHTYPE" speedFactor="0.98" vaporized=""/>
    <tripinfo id="118_288" depart="290.00" departLane="54o_0" departPos="5.10" departSpeed="0.00" departDelay="2.00" arrival="367.00" arrivalLane="53i_0" arrivalPos="10.00" arrivalSpeed="13.59" duration="77.00" routeLength="1015.10" waitingTime="0.00" waitingCount="0" stopTime="0.00" timeLoss="10.85" rerouteNo="0" devices="tripinfo_118_288" vType="DEFAULT_VEHTYPE" speedFactor="1.09" vaporized=""/>
    <tripinfo id="124_297" depart="297.00" departLane="53o_0" departPos="5.10" departSpeed="0.00" departDelay="0.00" arrival="389.00" arrivalLane="54i_0" arrivalPos="10.00" arrivalSpeed="10.88" duration="92.00" routeLength="1015.10" waitingTime="0.00" waitingCount="0" stopTime="0.00" timeLoss="9.66" rerouteNo="0" devices="tripinfo_124_297" vType="DEFAULT_VEHTYPE" speedFactor="0.87" vaporized=""/>
    <tripinfo id="126_302" depart="302.00" departLane="53o_0" departPos="5.10" departSpeed="0.00" departDelay="0.00" arrival="391.00" arrivalLane="54i_0" arrivalPos="10.00" arrivalSpeed="11.64" duration="89.00" routeLength="1015.10" waitingTime="0.00" waitingCount="0" stopTime="0.00" timeLoss="12.34" rerouteNo="0" devices="tripinfo_126_302" vType="DEFAULT_VEHTYPE" speedFactor="0.93" vaporized=""/>
    <tripinfo id="119_291" depart="294.00" departLane="54o_0" departPos="5.10" departSpeed="0.00" departDelay="3.00" arrival="392.00" arrivalLane="53i_0" arrivalPos="10.00" arrivalSpeed="10.66" duration="98.00" routeLength="1015.10" waitingTime="0.00" waitingCount="0" stopTime="0.00" timeLoss="9.29" rerouteNo="0" devices="tripinfo_119_291" vType="DEFAULT_VEHTYPE" speedFactor="0.81" vaporized=""/>
    <tripinfo id="131_316" depart="316.00" departLane="54o_0" departPos="5.10" departSpeed="0.00" departDelay="0.00" arrival="394.00" arrivalLane="53i_0" arrivalPos="10.00" arrivalSpeed="13.53" duration="78.00" routeLength="1015.10" waitingTime="0.00" waitingCount="0" stopTime="0.00" timeLoss="8.93" rerouteNo="0" devices="tripinfo_131_316" vType="DEFAULT_VEHTYPE" speedFactor="1.04" vaporized=""/>
    <tripinfo id="11_23" depart="23.00" departLane="52o_0" departPos="5.10" departSpeed="0.00" departDelay="0.00" arrival="402.00" arrivalLane="51i_0" arrivalPos="10.00" arrivalSpeed="11.97" duration="379.00" routeLength="1000.70" waitingTime="301.00" waitingCount="1" stopTime="0.00" timeLoss="311.63" rerouteNo="0" devices="tripinfo_11_23" vType="DEFAULT_VEHTYPE" speedFactor="1.05" vaporized=""/>