<?xml version="1.0" encoding="UTF-8"?>

<!-- generated on Wed 23 Oct 2019 04:49:35 PM CEST by Eclipse SUMO GUI Version 1.3.0
<configuration xmlns:xsi="http://www.w3.org/2001/XMLSchema-instance" xsi:noNamespaceSchemaLocation="http://sumo.dlr.de/xsd/sumoConfiguration.xsd">

    <input>
        <net-file value="/home/azlaan/PycharmProjects/otherprojects/aienvs/aienvs/Sumo/../../scenarios/Sumo/vertical_intersection/vertical.net.xml"/>
        <route-files value="/home/azlaan/PycharmProjects/otherprojects/aienvs/aienvs/Sumo/../../scenarios/Sumo/vertical_intersection/12221_routes.rou.xml"/>
    </input>

    <output>
        <tripinfo-output value="/home/azlaan/PycharmProjects/otherprojects/aienvs/aienvs/Sumo/../../test/Stats/tripinfo.xml"/>
    </output>

    <time>
        <begin value="0"/>
    </time>

    <report>
        <verbose value="true"/>
        <no-step-log value="true"/>
    </report>

    <traci_server>
        <remote-port value="12221"/>
    </traci_server>

    <random_number>
        <seed value="1571994965"/>
    </random_number>

</configuration>
-->

<tripinfos xmlns:xsi="http://www.w3.org/2001/XMLSchema-instance" xsi:noNamespaceSchemaLocation="http://sumo.dlr.de/xsd/tripinfo_file.xsd">
    <tripinfo id="1_1" depart="1.00" departLane="7i_0" departPos="5.10" departSpeed="0.00" departDelay="0.00" arrival="90.00" arrivalLane="6o_0" arrivalPos="492.80" arrivalSpeed="8.89" duration="89.00" routeLength="994.90" waitingTime="0.00" waitingCount="0" stopTime="0.00" timeLoss="9.51" rerouteNo="0" devices="tripinfo_1_1" vType="DEFAULT_VEHTYPE" speedFactor="0.90" vaporized=""/>
    <tripinfo id="4_9" depart="9.00" departLane="3i_0" departPos="5.10" departSpeed="0.00" departDelay="0.00" arrival="92.00" arrivalLane="2o_0" arrivalPos="492.80" arrivalSpeed="10.35" duration="83.00" routeLength="994.90" waitingTime="0.00" waitingCount="0" stopTime="0.00" timeLoss="8.94" rerouteNo="0" devices="tripinfo_4_9" vType="DEFAULT_VEHTYPE" speedFactor="0.96" vaporized=""/>
    <tripinfo id="7_15" depart="15.00" departLane="7i_0" departPos="5.10" departSpeed="0.00" departDelay="0.00" arrival="98.00" arrivalLane="6o_0" arrivalPos="492.80" arrivalSpeed="11.30" duration="83.00" routeLength="994.90" waitingTime="4.00" waitingCount="1" stopTime="0.00" timeLoss="14.57" rerouteNo="0" devices="tripinfo_7_15" vType="DEFAULT_VEHTYPE" speedFactor="1.04" vaporized=""/>
    <tripinfo id="3_5" depart="5.00" departLane="5i_0" departPos="5.10" departSpeed="0.00" departDelay="0.00" arrival="100.00" arrivalLane="4o_0" arrivalPos="492.80" arrivalSpeed="12.54" duration="95.00" routeLength="1494.90" waitingTime="0.00" waitingCount="0" stopTime="0.00" timeLoss="9.58" rerouteNo="0" devices="tripinfo_3_5" vType="DEFAULT_VEHTYPE" speedFactor="1.13" vaporized=""/>
    <tripinfo id="6_13" depart="13.00" departLane="6i_0" departPos="5.10" departSpeed="0.00" departDelay="0.00" arrival="103.00" arrivalLane="7o_0" arrivalPos="492.80" arrivalSpeed="9.91" duration="90.00" routeLength="994.90" waitingTime="4.00" waitingCount="1" stopTime="0.00" timeLoss="14.72" rerouteNo="0" devices="tripinfo_6_13" vType="DEFAULT_VEHTYPE" speedFactor="0.95" vaporized=""/>
    <tripinfo id="10_28" depart="28.00" departLane="2i_0" departPos="5.10" departSpeed="0.00" departDelay="0.00" arrival="104.00" arrivalLane="3o_0" arrivalPos="492.80" arrivalSpeed="11.82" duration="76.00" routeLength="994.90" waitingTime="0.00" waitingCount="0" stopTime="0.00" timeLoss="10.12" rerouteNo="0" devices="tripinfo_10_28" vType="DEFAULT_VEHTYPE" speedFactor="1.08" vaporized=""/>
    <tripinfo id="13_36" depart="36.00" departLane="6i_0" departPos="5.10" departSpeed="0.00" departDelay="0.00" arrival="107.00" arrivalLane="7o_0" arrivalPos="492.80" arrivalSpeed="11.96" duration="71.00" routeLength="994.90" waitingTime="0.00" waitingCount="0" stopTime="0.00" timeLoss="7.36" rerouteNo="0" devices="tripinfo_13_36" vType="DEFAULT_VEHTYPE" speedFactor="1.12" vaporized=""/>
    <tripinfo id="11_30" depart="30.00" departLane="7i_0" departPos="5.10" departSpeed="0.00" departDelay="0.00" arrival="111.00" arrivalLane="6o_0" arrivalPos="492.80" arrivalSpeed="10.27" duration="81.00" routeLength="994.90" waitingTime="0.00" waitingCount="0" stopTime="0.00" timeLoss="9.49" rerouteNo="0" devices="tripinfo_11_30" vType="DEFAULT_VEHTYPE" speedFactor="0.99" vaporized=""/>
    <tripinfo id="14_42" depart="42.00" departLane="7i_0" departPos="5.10" departSpeed="0.00" departDelay="0.00" arrival="116.00" arrivalLane="6o_0" arrivalPos="492.80" arrivalSpeed="11.00" duration="74.00" routeLength="994.90" waitingTime="0.00" waitingCount="0" stopTime="0.00" timeLoss="8.68" rerouteNo="0" devices="tripinfo_14_42" vType="DEFAULT_VEHTYPE" speedFactor="1.09" vaporized=""/>
    <tripinfo id="18_50" depart="50.00" departLane="6i_0" departPos="5.10" departSpeed="0.00" departDelay="0.00" arrival="117.00" arrivalLane="7o_0" arrivalPos="492.80" arrivalSpeed="12.68" duration="67.00" routeLength="994.90" waitingTime="0.00" waitingCount="0" stopTime="0.00" timeLoss="8.52" rerouteNo="0" devices="tripinfo_18_50" vType="DEFAULT_VEHTYPE" speedFactor="1.21" vaporized=""/>
    <tripinfo id="5_12" depart="12.00" departLane="5i_0" departPos="5.10" departSpeed="0.00" departDelay="0.00" arrival="121.00" arrivalLane="4o_0" arrivalPos="492.80" arrivalSpeed="10.46" duration="109.00" routeLength="1494.90" waitingTime="2.00" waitingCount="1" stopTime="0.00" timeLoss="15.58" rerouteNo="0" devices="tripinfo_5_12" vType="DEFAULT_VEHTYPE" speedFactor="1.03" vaporized=""/>
    <tripinfo id="2_2" depart="2.00" departLane="4i_0" departPos="5.10" departSpeed="0.00" departDelay="0.00" arrival="125.00" arrivalLane="5o_0" arrivalPos="492.80" arrivalSpeed="11.21" duration="123.00" routeLength="1494.90" waitingTime="3.00" waitingCount="1" stopTime="0.00" timeLoss="15.66" rerouteNo="0" devices="tripinfo_2_2" vType="DEFAULT_VEHTYPE" speedFactor="1.09" vaporized=""/>
    <tripinfo id="8_21" depart="21.00" departLane="5i_0" departPos="5.10" departSpeed="0.00" departDelay="0.00" arrival="126.00" arrivalLane="4o_0" arrivalPos="492.80" arrivalSpeed="11.59" duration="105.00" routeLength="1494.90" waitingTime="0.00" waitingCount="0" stopTime="0.00" timeLoss="17.04" rerouteNo="0" devices="tripinfo_8_21" vType="DEFAULT_VEHTYPE" speedFactor="1.10" vaporized=""/>
    <tripinfo id="17_49" depart="49.00" departLane="7i_0" departPos="5.10" departSpeed="0.00" departDelay="0.00" arrival="134.00" arrivalLane="6o_0" arrivalPos="492.80" arrivalSpeed="9.59" duration="85.00" routeLength="994.90" waitingTime="0.00" waitingCount="0" stopTime="0.00" timeLoss="9.88" rerouteNo="0" devices="tripinfo_17_49" vType="DEFAULT_VEHTYPE" speedFactor="0.95" vaporized=""/>
    <tripinfo id="20_53" depart="53.00" departLane="6i_0" departPos="5.10" departSpeed="0.00" departDelay="0.00" arrival="134.00" arrivalLane="7o_0" arrivalPos="492.80" arrivalSpeed="11.37" duration="81.00" routeLength="994.90" waitingTime="0.00" waitingCount="0" stopTime="0.00" timeLoss="13.77" rerouteNo="0" devices="tripinfo_20_53" vType="DEFAULT_VEHTYPE" speedFactor="1.06" vaporized=""/>
    <tripinfo id="9_25" depart="25.00" departLane="5i_0" departPos="5.10" departSpeed="0.00" departDelay="0.00" arrival="136.00" arrivalLane="4o_0" arrivalPos="492.80" arrivalSpeed="10.79" duration="111.00" routeLength="1494.90" waitingTime="1.00" waitingCount="1" stopTime="0.00" timeLoss="17.61" rerouteNo="0" devices="tripinfo_9_25" vType="DEFAULT_VEHTYPE" speedFactor="1.04" vaporized=""/>
    <tripinfo id="23_61" depart="61.00" departLane="2i_0" departPos="5.10" departSpeed="0.00" departDelay="0.00" arrival="137.00" arrivalLane="3o_0" arrivalPos="492.80" arrivalSpeed="12.43" duration="76.00" routeLength="994.90" waitingTime="0.00" waitingCount="0" stopTime="0.00" timeLoss="13.15" rerouteNo="0" devices="tripinfo_23_61" vType="DEFAULT_VEHTYPE" speedFactor="1.14" vaporized=""/>
    <tripinfo id="21_56" depart="56.00" departLane="3i_0" departPos="5.10" departSpeed="0.00" departDelay="0.00" arrival="150.00" arrivalLane="2o_0" arrivalPos="492.80" arrivalSpeed="9.50" duration="94.00" routeLength="994.90" waitingTime="0.00" waitingCount="0" stopTime="0.00" timeLoss="13.58" rerouteNo="0" devices="tripinfo_21_56" vType="DEFAULT_VEHTYPE" speedFactor="0.88" vaporized=""/>
    <tripinfo id="24_70" depart="70.00" departLane="2i_0" departPos="5.10" departSpeed="0.00" departDelay="0.00" arrival="150.00" arrivalLane="3o_0" arrivalPos="492.80" arrivalSpeed="10.54" duration="80.00" routeLength="994.90" waitingTime="3.00" waitingCount="1" stopTime="0.00" timeLoss="12.99" rerouteNo="0" devices="tripinfo_24_70" vType="DEFAULT_VEHTYPE" speedFactor="1.06" vaporized=""/>
    <tripinfo id="26_78" depart="78.00" departLane="7i_0" departPos="5.10" departSpeed="0.00" departDelay="0.00" arrival="151.00" arrivalLane="6o_0" arrivalPos="492.80" arrivalSpeed="11.69" duration="73.00" routeLength="994.90" waitingTime="0.00" waitingCount="0" stopTime="0.00" timeLoss="9.60" rerouteNo="0" devices="tripinfo_26_78" vType="DEFAULT_VEHTYPE" speedFactor="1.13" vaporized=""/>
    <tripinfo id="29_81" depart="81.00" departLane="6i_0" departPos="5.10" departSpeed="0.00" departDelay="0.00" arrival="152.00" arrivalLane="7o_0" arrivalPos="492.80" arrivalSpeed="12.40" duration="71.00" routeLength="994.90" waitingTime="0.00" waitingCount="0" stopTime="0.00" timeLoss="7.55" rerouteNo="0" devices="tripinfo_29_81" vType="DEFAULT_VEHTYPE" speedFactor="1.12" vaporized=""/>
    <tripinfo id="12_33" depart="33.00" departLane="4i_0" departPos="5.10" departSpeed="0.00" departDelay="0.00" arrival="156.00" arrivalLane="5o_0" arrivalPos="492.80" arrivalSpeed="11.15" duration="123.00" routeLength="1494.90" waitingTime="1.00" waitingCount="1" stopTime="0.00" timeLoss="17.50" rerouteNo="0" devices="tripinfo_12_33" vType="DEFAULT_VEHTYPE" speedFactor="1.10" vaporized=""/>
    <tripinfo id="32_86" depart="86.00" departLane="3i_0" departPos="5.10" departSpeed="0.00" departDelay="0.00" arrival="162.00" arrivalLane="2o_0" arrivalPos="492.80" arrivalSpeed="11.83" duration="76.00" routeLength="994.90" waitingTime="0.00" waitingCount="0" stopTime="0.00" timeLoss="10.10" rerouteNo="0" devices="tripinfo_32_86" vType="DEFAULT_VEHTYPE" speedFactor="1.09" vaporized=""/>
    <tripinfo id="27_79" depart="81.00" departLane="7i_0" departPos="5.10" departSpeed="0.00" departDelay="2.00" arrival="164.00" arrivalLane="6o_0" arrivalPos="492.80" arrivalSpeed="10.90" duration="83.00" routeLength="994.90" waitingTime="2.00" waitingCount="1" stopTime="0.00" timeLoss="12.50" rerouteNo="0" devices="tripinfo_27_79" vType="DEFAULT_VEHTYPE" speedFactor="1.00" vaporized=""/>
    <tripinfo id="15_44" depart="44.00" departLane="5i_0" departPos="5.10" departSpeed="0.00" departDelay="0.00" arrival="167.00" arrivalLane="4o_0" arrivalPos="492.80" arrivalSpeed="8.98" duration="123.00" routeLength="1494.90" waitingTime="0.00" waitingCount="0" stopTime="0.00" timeLoss="15.16" rerouteNo="0" devices="tripinfo_15_44" vType="DEFAULT_VEHTYPE" speedFactor="0.90" vaporized=""/>
    <tripinfo id="19_51" depart="51.00" departLane="5i_0" departPos="5.10" departSpeed="0.00" departDelay="0.00" arrival="169.00" arrivalLane="4o_0" arrivalPos="492.80" arrivalSpeed="9.83" duration="118.00" routeLength="1494.90" waitingTime="0.00" waitingCount="0" stopTime="0.00" timeLoss="20.44" rerouteNo="0" devices="tripinfo_19_51" vType="DEFAULT_VEHTYPE" speedFactor="1.00" vaporized=""/>
    <tripinfo id="35_89" depart="89.00" departLane="2i_0" departPos="5.10" departSpeed="0.00" departDelay="0.00" arrival="171.00" arrivalLane="3o_0" arrivalPos="492.80" arrivalSpeed="10.46" duration="82.00" routeLength="994.90" waitingTime="0.00" waitingCount="0" stopTime="0.00" timeLoss="8.24" rerouteNo="0" devices="tripinfo_35_89" vType="DEFAULT_VEHTYPE" speedFactor="0.96" vaporized=""/>
    <tripinfo id="30_82" depart="84.00" departLane="7i_0" departPos="5.10" departSpeed="0.00" departDelay="2.00" arrival="179.00" arrivalLane="6o_0" arrivalPos="492.80" arrivalSpeed="8.50" duration="95.00" routeLength="994.90" waitingTime="0.00" waitingCount="0" stopTime="0.00" timeLoss="10.44" rerouteNo="0" devices="tripinfo_30_82" vType="DEFAULT_VEHTYPE" speedFactor="0.84" vaporized=""/>
    <tripinfo id="40_104" depart="104.00" departLane="2i_0" departPos="5.10" departSpeed="0.00" departDelay="0.00" arrival="180.00" arrivalLane="3o_0" arrivalPos="492.80" arrivalSpeed="10.54" duration="76.00" routeLength="994.90" waitingTime="0.00" waitingCount="0" stopTime="0.00" timeLoss="8.48" rerouteNo="0" devices="tripinfo_40_104" vType="DEFAULT_VEHTYPE" speedFactor="1.05" vaporized=""/>
    <tripinfo id="31_84" depart="87.00" departLane="7i_0" departPos="5.10" departSpeed="0.00" departDelay="3.00" arrival="181.00" arrivalLane="6o_0" arrivalPos="492.80" arrivalSpeed="13.43" duration="94.00" routeLength="994.90" waitingTime="0.00" waitingCount="0" stopTime="0.00" timeLoss="35.35" rerouteNo="0" devices="tripinfo_31_84" vType="DEFAULT_VEHTYPE" speedFactor="1.22" vaporized=""/>
    <tripinfo id="41_106" depart="107.00" departLane="2i_0" departPos="5.10" departSpeed="0.00" departDelay="1.00" arrival="182.00" arrivalLane="3o_0" arrivalPos="492.80" arrivalSpeed="11.03" duration="75.00" routeLength="994.90" waitingTime="0.00" waitingCount="0" stopTime="0.00" timeLoss="8.11" rerouteNo="0" devices="tripinfo_41_106" vType="DEFAULT_VEHTYPE" speedFactor="1.06" vaporized=""/>
    <tripinfo id="36_90" depart="90.00" departLane="7i_0" departPos="5.10" departSpeed="0.00" departDelay="0.00" arrival="184.00" arrivalLane="6o_0" arrivalPos="492.80" arrivalSpeed="9.90" duration="94.00" routeLength="994.90" waitingTime="1.00" waitingCount="1" stopTime="0.00" timeLoss="16.24" rerouteNo="0" devices="tripinfo_36_90" vType="DEFAULT_VEHTYPE" speedFactor="0.91" vaporized=""/>
    <tripinfo id="38_97" depart="97.00" departLane="7i_0" departPos="5.10" departSpeed="0.00" departDelay="0.00" arrival="186.00" arrivalLane="6o_0" arrivalPos="492.80" arrivalSpeed="9.17" duration="89.00" routeLength="994.90" waitingTime="0.00" waitingCount="0" stopTime="0.00" timeLoss="11.51" rerouteNo="0" devices="tripinfo_38_97" vType="DEFAULT_VEHTYPE" speedFactor="0.91" vaporized=""/>
    <tripinfo id="39_100" depart="100.00" departLane="7i_0" departPos="5.10" departSpeed="0.00" departDelay="0.00" arrival="188.00" arrivalLane="6o_0" arrivalPos="492.80" arrivalSpeed="10.24" duration="88.00" routeLength="994.90" waitingTime="0.00" waitingCount="0" stopTime="0.00" timeLoss="13.87" rerouteNo="0" devices="tripinfo_39_100" vType="DEFAULT_VEHTYPE" speedFactor="0.96" vaporized=""/>
    <tripinfo id="42_108" depart="108.00" departLane="3i_0" departPos="5.10" departSpeed="0.00" departDelay="0.00" arrival="192.00" arrivalLane="2o_0" arrivalPos="492.80" arrivalSpeed="9.58" duration="84.00" routeLength="994.90" waitingTime="0.00" waitingCount="0" stopTime="0.00" timeLoss="10.43" rerouteNo="0" devices="tripinfo_42_108" vType="DEFAULT_VEHTYPE" speedFactor="0.96" vaporized=""/>
    <tripinfo id="25_73" depart="73.00" departLane="5i_0" departPos="5.10" departSpeed="0.00" departDelay="0.00" arrival="194.00" arrivalLane="4o_0" arrivalPos="492.80" arrivalSpeed="8.89" duration="121.00" routeLength="1494.90" waitingTime="0.00" waitingCount="0" stopTime="0.00" timeLoss="13.32" rerouteNo="0" devices="tripinfo_25_73" vType="DEFAULT_VEHTYPE" speedFactor="0.90" vaporized=""/>
    <tripinfo id="34_88" depart="88.00" departLane="5i_0" departPos="5.10" departSpeed="0.00" departDelay="0.00" arrival="196.00" arrivalLane="4o_0" arrivalPos="492.80" arrivalSpeed="11.49" duration="108.00" routeLength="1494.90" waitingTime="0.00" waitingCount="0" stopTime="0.00" timeLoss="21.09" rerouteNo="0" devices="tripinfo_34_88" vType="DEFAULT_VEHTYPE" speedFactor="1.12" vaporized=""/>
    <tripinfo id="44_114" depart="116.00" departLane="6i_0" departPos="5.10" departSpeed="0.00" departDelay="2.00" arrival="196.00" arrivalLane="7o_0" arrivalPos="492.80" arrivalSpeed="11.71" duration="80.00" routeLength="994.90" waitingTime="0.00" waitingCount="0" stopTime="0.00" timeLoss="14.40" rerouteNo="0" devices="tripinfo_44_114" vType="DEFAULT_VEHTYPE" speedFactor="1.08" vaporized=""/>
    <tripinfo id="16_45" depart="45.00" departLane="4i_0" departPos="5.10" departSpeed="0.00" departDelay="0.00" arrival="206.00" arrivalLane="5o_0" arrivalPos="492.80" arrivalSpeed="8.91" duration="161.00" routeLength="1494.90" waitingTime="1.00" waitingCount="1" stopTime="0.00" timeLoss="17.25" rerouteNo="0" devices="tripinfo_16_45" vType="DEFAULT_VEHTYPE" speedFactor="0.81" vaporized=""/>
    <tripinfo id="45_116" depart="116.00" departLane="2i_0" departPos="5.10" departSpeed="0.00" departDelay="0.00" arrival="207.00" arrivalLane="3o_0" arrivalPos="492.80" arrivalSpeed="9.34" duration="91.00" routeLength="994.90" waitingTime="0.00" waitingCount="0" stopTime="0.00" timeLoss="8.75" rerouteNo="0" devices="tripinfo_45_116" vType="DEFAULT_VEHTYPE" speedFactor="0.86" vaporized=""/>
    <tripinfo id="22_59" depart="59.00" departLane="4i_0" departPos="5.10" departSpeed="0.00" departDelay="0.00" arrival="208.00" arrivalLane="5o_0" arrivalPos="492.80" arrivalSpeed="11.68" duration="149.00" routeLength="1494.90" waitingTime="2.00" waitingCount="2" stopTime="0.00" timeLoss="44.92" rerouteNo="0" devices="tripinfo_22_59" vType="DEFAULT_VEHTYPE" speedFactor="1.12" vaporized=""/>
    <tripinfo id="28_80" depart="80.00" departLane="4i_0" departPos="5.10" departSpeed="0.00" departDelay="0.00" arrival="209.00" arrivalLane="5o_0" arrivalPos="492.80" arrivalSpeed="12.10" duration="129.00" routeLength="1494.90" waitingTime="1.00" waitingCount="1" stopTime="0.00" timeLoss="24.27" rerouteNo="0" devices="tripinfo_28_80" vType="DEFAULT_VEHTYPE" speedFactor="1.11" vaporized=""/>
    <tripinfo id="47_120" depart="120.00" departLane="2i_0" departPos="5.10" departSpeed="0.00" departDelay="0.00" arrival="209.00" arrivalLane="3o_0" arrivalPos="492.80" arrivalSpeed="10.46" duration="89.00" routeLength="994.90" waitingTime="0.00" waitingCount="0" stopTime="0.00" timeLoss="14.37" rerouteNo="0" devices="tripinfo_47_120" vType="DEFAULT_VEHTYPE" speedFactor="0.95" vaporized=""/>
    <tripinfo id="51_133" depart="133.00" departLane="3i_0" departPos="5.10" departSpeed="0.00" departDelay="0.00" arrival="212.00" arrivalLane="2o_0" arrivalPos="492.80" arrivalSpeed="10.97" duration="79.00" routeLength="994.90" waitingTime="0.00" waitingCount="0" stopTime="0.00" timeLoss="8.40" rerouteNo="0" devices="tripinfo_51_133" vType="DEFAULT_VEHTYPE" speedFactor="1.01" vaporized=""/>
    <tripinfo id="53_138" depart="138.00" departLane="2i_0" departPos="5.10" departSpeed="0.00" departDelay="0.00" arrival="212.00" arrivalLane="3o_0" arrivalPos="492.80" arrivalSpeed="12.67" duration="74.00" routeLength="994.90" waitingTime="3.00" waitingCount="1" stopTime="0.00" timeLoss="13.85" rerouteNo="0" devices="tripinfo_53_138" vType="DEFAULT_VEHTYPE" speedFactor="1.18" vaporized=""/>
    <tripinfo id="48_124" depart="124.00" departLane="7i_0" departPos="5.10" departSpeed="0.00" departDelay="0.00" arrival="215.00" arrivalLane="6o_0" arrivalPos="492.80" arrivalSpeed="9.63" duration="91.00" routeLength="994.90" waitingTime="0.00" waitingCount="0" stopTime="0.00" timeLoss="12.08" rerouteNo="0" devices="tripinfo_48_124" vType="DEFAULT_VEHTYPE" speedFactor="0.90" vaporized=""/>
    <tripinfo id="33_87" depart="87.00" departLane="4i_0" departPos="5.10" departSpeed="0.00" departDelay="0.00" arrival="223.00" arrivalLane="5o_0" arrivalPos="492.80" arrivalSpeed="11.15" duration="136.00" routeLength="1494.90" waitingTime="4.00" waitingCount="2" stopTime="0.00" timeLoss="23.34" rerouteNo="0" devices="tripinfo_33_87" vType="DEFAULT_VEHTYPE" speedFactor="1.03" vaporized=""/>
    <tripinfo id="56_142" depart="142.00" departLane="6i_0" departPos="5.10" departSpeed="0.00" departDelay="0.00" arrival="233.00" arrivalLane="7o_0" arrivalPos="492.80" arrivalSpeed="9.51" duration="91.00" routeLength="994.90" waitingTime="0.00" waitingCount="0" stopTime="0.00" timeLoss="12.94" rerouteNo="0" devices="tripinfo_56_142" vType="DEFAULT_VEHTYPE" speedFactor="0.91" vaporized=""/>
    <tripinfo id="43_112" depart="112.00" departLane="5i_0" departPos="5.10" departSpeed="0.00" departDelay="0.00" arrival="235.00" arrivalLane="4o_0" arrivalPos="492.80" arrivalSpeed="8.89" duration="123.00" routeLength="1494.90" waitingTime="0.00" waitingCount="0" stopTime="0.00" timeLoss="11.16" rerouteNo="0" devices="tripinfo_43_112" vType="DEFAULT_VEHTYPE" speedFactor="0.86" vaporized=""/>
    <tripinfo id="46_119" depart="119.00" departLane="5i_0" departPos="5.10" departSpeed="0.00" departDelay="0.00" arrival="237.00" arrivalLane="4o_0" arrivalPos="492.80" arrivalSpeed="11.19" duration="118.00" routeLength="1494.90" waitingTime="4.00" waitingCount="1" stopTime="0.00" timeLoss="23.03" rerouteNo="0" devices="tripinfo_46_119" vType="DEFAULT_VEHTYPE" speedFactor="1.02" vaporized=""/>
    <tripinfo id="37_91" depart="91.00" departLane="4i_0" departPos="5.10" departSpeed="0.00" departDelay="0.00" arrival="239.00" arrivalLane="5o_0" arrivalPos="492.80" arrivalSpeed="9.10" duration="148.00" routeLength="1494.90" waitingTime="0.00" waitingCount="0" stopTime="0.00" timeLoss="17.34" rerouteNo="0" devices="tripinfo_37_91" vType="DEFAULT_VEHTYPE" speedFactor="0.89" vaporized=""/>
    <tripinfo id="60_155" depart="155.00" departLane="3i_0" departPos="5.10" departSpeed="0.00" departDelay="0.00" arrival="239.00" arrivalLane="2o_0" arrivalPos="492.80" arrivalSpeed="10.98" duration="84.00" routeLength="994.90" waitingTime="4.00" waitingCount="1" stopTime="0.00" timeLoss="14.83" rerouteNo="0" devices="tripinfo_60_155" vType="DEFAULT_VEHTYPE" speedFactor="1.03" vaporized=""/>
    <tripinfo id="66_169" depart="169.00" departLane="6i_0" departPos="5.10" departSpeed="0.00" departDelay="0.00" arrival="239.00" arrivalLane="7o_0" arrivalPos="492.80" arrivalSpeed="13.24" duration="70.00" routeLength="994.90" waitingTime="0.00" waitingCount="0" stopTime="0.00" timeLoss="10.38" rerouteNo="0" devices="tripinfo_66_169" vType="DEFAULT_VEHTYPE" speedFactor="1.20" vaporized=""/>
    <tripinfo id="49_129" depart="129.00" departLane="5i_0" departPos="5.10" departSpeed="0.00" departDelay="0.00" arrival="241.00" arrivalLane="4o_0" arrivalPos="492.80" arrivalSpeed="10.90" duration="112.00" routeLength="1494.90" waitingTime="0.00" waitingCount="0" stopTime="0.00" timeLoss="19.14" rerouteNo="0" devices="tripinfo_49_129" vType="DEFAULT_VEHTYPE" speedFactor="1.04" vaporized=""/>
    <tripinfo id="59_152" depart="152.00" departLane="7i_0" departPos="5.10" departSpeed="0.00" departDelay="0.00" arrival="242.00" arrivalLane="6o_0" arrivalPos="492.80" arrivalSpeed="9.80" duration="90.00" routeLength="994.90" waitingTime="3.00" waitingCount="1" stopTime="0.00" timeLoss="14.43" rerouteNo="0" devices="tripinfo_59_152" vType="DEFAULT_VEHTYPE" speedFactor="0.93" vaporized=""/>
    <tripinfo id="61_156" depart="158.00" departLane="3i_0" departPos="5.10" departSpeed="0.00" departDelay="2.00" arrival="242.00" arrivalLane="2o_0" arrivalPos="492.80" arrivalSpeed="12.70" duration="84.00" routeLength="994.90" waitingTime="4.00" waitingCount="2" stopTime="0.00" timeLoss="22.06" rerouteNo="0" devices="tripinfo_61_156" vType="DEFAULT_VEHTYPE" speedFactor="1.15" vaporized=""/>
    <tripinfo id="50_131" depart="132.00" departLane="5i_0" departPos="5.10" departSpeed="0.00" departDelay="1.00" arrival="243.00" arrivalLane="4o_0" arrivalPos="492.80" arrivalSpeed="11.06" duration="111.00" routeLength="1494.90" waitingTime="0.00" waitingCount="0" stopTime="0.00" timeLoss="22.85" rerouteNo="0" devices="tripinfo_50_131" vType="DEFAULT_VEHTYPE" speedFactor="1.10" vaporized=""/>
    <tripinfo id="54_139" depart="139.00" departLane="5i_0" departPos="5.10" departSpeed="0.00" departDelay="0.00" arrival="253.00" arrivalLane="4o_0" arrivalPos="492.80" arrivalSpeed="11.08" duration="114.00" routeLength="1494.90" waitingTime="2.00" waitingCount="1" stopTime="0.00" timeLoss="18.52" rerouteNo="0" devices="tripinfo_54_139" vType="DEFAULT_VEHTYPE" speedFactor="1.02" vaporized=""/>
    <tripinfo id="55_141" depart="142.00" departLane="5i_0" departPos="5.10" departSpeed="0.00" departDelay="1.00" arrival="255.00" arrivalLane="4o_0" arrivalPos="492.80" arrivalSpeed="12.11" duration="113.00" routeLength="1494.90" waitingTime="4.00" waitingCount="2" stopTime="0.00" timeLoss="27.68" rerouteNo="0" devices="tripinfo_55_141" vType="DEFAULT_VEHTYPE" speedFactor="1.14" vaporized=""/>
    <tripinfo id="63_162" depart="162.00" departLane="2i_0" departPos="5.10" departSpeed="0.00" departDelay="0.00" arrival="256.00" arrivalLane="3o_0" arrivalPos="492.80" arrivalSpeed="8.64" duration="94.00" routeLength="994.90" waitingTime="0.00" waitingCount="0" stopTime="0.00" timeLoss="12.79" rerouteNo="0" devices="tripinfo_63_162" vType="DEFAULT_VEHTYPE" speedFactor="0.87" vaporized=""/>
    <tripinfo id="67_172" depart="172.00" departLane="2i_0" departPos="5.10" departSpeed="0.00" departDelay="0.00" arrival="258.00" arrivalLane="3o_0" arrivalPos="492.80" arrivalSpeed="11.22" duration="86.00" routeLength="994.90" waitingTime="1.00" waitingCount="1" stopTime="0.00" timeLoss="17.23" rerouteNo="0" devices="tripinfo_67_172" vType="DEFAULT_VEHTYPE" speedFactor="1.04" vaporized=""/>
    <tripinfo id="68_176" depart="176.00" departLane="2i_0" departPos="5.10" departSpeed="0.00" departDelay="0.00" arrival="259.00" arrivalLane="3o_0" arrivalPos="492.80" arrivalSpeed="11.87" duration="83.00" routeLength="994.90" waitingTime="0.00" waitingCount="0" stopTime="0.00" timeLoss="19.57" rerouteNo="0" devices="tripinfo_68_176" vType="DEFAULT_VEHTYPE" speedFactor="1.11" vaporized=""/>
    <tripinfo id="69_178" depart="179.00" departLane="6i_0" departPos="5.10" departSpeed="0.00" departDelay="1.00" arrival="264.00" arrivalLane="7o_0" arrivalPos="492.80" arrivalSpeed="9.74" duration="85.00" routeLength="994.90" waitingTime="0.00" waitingCount="0" stopTime="0.00" timeLoss="9.04" rerouteNo="0" devices="tripinfo_69_178" vType="DEFAULT_VEHTYPE" speedFactor="0.93" vaporized=""/>
    <tripinfo id="70_181" depart="182.00" departLane="6i_0" departPos="5.10" departSpeed="0.00" departDelay="1.00" arrival="266.00" arrivalLane="7o_0" arrivalPos="492.80" arrivalSpeed="10.65" duration="84.00" routeLength="994.90" waitingTime="0.00" waitingCount="0" stopTime="0.00" timeLoss="16.94" rerouteNo="0" devices="tripinfo_70_181" vType="DEFAULT_VEHTYPE" speedFactor="1.06" vaporized=""/>
    <tripinfo id="52_135" depart="136.00" departLane="4i_0" departPos="5.10" departSpeed="0.00" departDelay="1.00" arrival="267.00" arrivalLane="5o_0" arrivalPos="492.80" arrivalSpeed="10.65" duration="131.00" routeLength="1494.90" waitingTime="0.00" waitingCount="0" stopTime="0.00" timeLoss="11.92" rerouteNo="0" devices="tripinfo_52_135" vType="DEFAULT_VEHTYPE" speedFactor="0.98" vaporized=""/>
    <tripinfo id="72_193" depart="193.00" departLane="3i_0" departPos="5.10" departSpeed="0.00" departDelay="0.00" arrival="275.00" arrivalLane="2o_0" arrivalPos="492.80" arrivalSpeed="10.56" duration="82.00" routeLength="994.90" waitingTime="0.00" waitingCount="0" stopTime="0.00" timeLoss="8.65" rerouteNo="0" devices="tripinfo_72_193" vType="DEFAULT_VEHTYPE" speedFactor="0.97" vaporized=""/>
    <tripinfo id="73_194" depart="194.00" departLane="2i_0" departPos="5.10" departSpeed="0.00" departDelay="0.00" arrival="275.00" arrivalLane="3o_0" arrivalPos="492.80" arrivalSpeed="10.05" duration="81.00" routeLength="994.90" waitingTime="0.00" waitingCount="0" stopTime="0.00" timeLoss="7.46" rerouteNo="0" devices="tripinfo_73_194" vType="DEFAULT_VEHTYPE" speedFactor="0.97" vaporized=""/>
    <tripinfo id="57_144" depart="144.00" departLane="4i_0" departPos="5.10" departSpeed="0.00" departDelay="0.00" arrival="278.00" arrivalLane="5o_0" arrivalPos="492.80" arrivalSpeed="10.20" duration="134.00" routeLength="1494.90" waitingTime="0.00" waitingCount="0" stopTime="0.00" timeLoss="12.94" rerouteNo="0" devices="tripinfo_57_144" vType="DEFAULT_VEHTYPE" speedFactor="0.96" vaporized=""/>
    <tripinfo id="58_146" depart="147.00" departLane="4i_0" departPos="5.10" departSpeed="0.00" departDelay="1.00" arrival="281.00" arrivalLane="5o_0" arrivalPos="492.80" arrivalSpeed="10.27" duration="134.00" routeLength="1494.90" waitingTime="1.00" waitingCount="1" stopTime="0.00" timeLoss="20.82" rerouteNo="0" devices="tripinfo_58_146" vType="DEFAULT_VEHTYPE" speedFactor="1.03" vaporized=""/>
    <tripinfo id="62_159" depart="159.00" departLane="4i_0" departPos="5.10" departSpeed="0.00" departDelay="0.00" arrival="283.00" arrivalLane="5o_0" arrivalPos="492.80" arrivalSpeed="11.04" duration="124.00" routeLength="1494.90" waitingTime="0.00" waitingCount="0" stopTime="0.00" timeLoss="16.70" rerouteNo="0" devices="tripinfo_62_159" vType="DEFAULT_VEHTYPE" speedFactor="1.08" vaporized=""/>
    <tripinfo id="64_163" depart="163.00" departLane="4i_0" departPos="5.10" departSpeed="0.00" departDelay="0.00" arrival="284.00" arrivalLane="5o_0" arrivalPos="492.80" arrivalSpeed="13.40" duration="121.00" routeLength="1494.90" waitingTime="3.00" waitingCount="1" stopTime="0.00" timeLoss="27.81" rerouteNo="0" devices="tripinfo_64_163" vType="DEFAULT_VEHTYPE" speedFactor="1.25" vaporized=""/>
    <tripinfo id="65_165" depart="165.00" departLane="5i_0" departPos="5.10" departSpeed="0.00" departDelay="0.00" arrival="287.00" arrivalLane="4o_0" arrivalPos="492.80" arrivalSpeed="9.70" duration="122.00" routeLength="1494.90" waitingTime="0.00" waitingCount="0" stopTime="0.00" timeLoss="14.52" rerouteNo="0" devices="tripinfo_65_165" vType="DEFAULT_VEHTYPE" speedFactor="0.90" vaporized=""/>