<?xml version="1.0" encoding="UTF-8"?>

<!-- generated on Wed Dec 11 23:28:49 2019 by Eclipse SUMO Version 1.2.0
<configuration xmlns:xsi="http://www.w3.org/2001/XMLSchema-instance" xsi:noNamespaceSchemaLocation="http://sumo.dlr.de/xsd/sumoConfiguration.xsd">

    <input>
        <net-file value="/home/azlaans/aienvs/aienvs/Sumo/../../scenarios/Sumo/vertical_intersection/vertical.net.xml"/>
        <route-files value="/home/azlaans/aienvs/aienvs/Sumo/../../scenarios/Sumo/vertical_intersection/18202_routes.rou.xml"/>
    </input>

    <output>
        <tripinfo-output value="/home/azlaans/aienvs/aienvs/Sumo/../../test/Stats/vertical/tripinfo.xml"/>
    </output>

    <time>
        <begin value="0"/>
    </time>

    <report>
        <verbose value="true"/>
        <no-step-log value="true"/>
    </report>

    <traci_server>
        <remote-port value="18202"/>
    </traci_server>

    <random_number>
        <seed value="1601252719"/>
    </random_number>

</configuration>
-->

<tripinfos xmlns:xsi="http://www.w3.org/2001/XMLSchema-instance" xsi:noNamespaceSchemaLocation="http://sumo.dlr.de/xsd/tripinfo_file.xsd">
    <tripinfo id="2_14" depart="14.00" departLane="6i_0" departPos="5.10" departSpeed="0.00" departDelay="0.00" arrival="111.00" arrivalLane="7o_0" arrivalPos="492.80" arrivalSpeed="8.94" duration="97.00" routeLength="994.90" waitingTime="0.00" waitingCount="0" stopTime="0.00" timeLoss="9.27" rerouteNo="0" devices="tripinfo_2_14" vType="DEFAULT_VEHTYPE" speedFactor="0.81" vaporized=""/>
    <tripinfo id="4_35" depart="35.00" departLane="3i_0" departPos="5.10" departSpeed="0.00" departDelay="0.00" arrival="122.00" arrivalLane="2o_0" arrivalPos="492.80" arrivalSpeed="10.01" duration="87.00" routeLength="994.90" waitingTime="1.00" waitingCount="1" stopTime="0.00" timeLoss="15.20" rerouteNo="0" devices="tripinfo_4_35" vType="DEFAULT_VEHTYPE" speedFactor="0.99" vaporized=""/>
    <tripinfo id="5_37" depart="37.00" departLane="2i_0" departPos="5.10" departSpeed="0.00" departDelay="0.00" arrival="139.00" arrivalLane="3o_0" arrivalPos="492.80" arrivalSpeed="7.62" duration="102.00" routeLength="994.90" waitingTime="0.00" waitingCount="0" stopTime="0.00" timeLoss="9.70" rerouteNo="0" devices="tripinfo_5_37" vType="DEFAULT_VEHTYPE" speedFactor="0.77" vaporized=""/>
    <tripinfo id="11_59" depart="59.00" departLane="2i_0" departPos="5.10" departSpeed="0.00" departDelay="0.00" arrival="140.00" arrivalLane="3o_0" arrivalPos="492.80" arrivalSpeed="9.66" duration="81.00" routeLength="994.90" waitingTime="0.00" waitingCount="0" stopTime="0.00" timeLoss="8.21" rerouteNo="0" devices="tripinfo_11_59" vType="DEFAULT_VEHTYPE" speedFactor="0.97" vaporized=""/>
    <tripinfo id="6_41" depart="41.00" departLane="6i_0" departPos="5.10" departSpeed="0.00" departDelay="0.00" arrival="141.00" arrivalLane="7o_0" arrivalPos="492.80" arrivalSpeed="9.71" duration="100.00" routeLength="994.90" waitingTime="15.00" waitingCount="1" stopTime="0.00" timeLoss="28.16" rerouteNo="0" devices="tripinfo_6_41" vType="DEFAULT_VEHTYPE" speedFactor="0.98" vaporized=""/>
    <tripinfo id="9_55" depart="55.00" departLane="7i_0" departPos="5.10" departSpeed="0.00" departDelay="0.00" arrival="141.00" arrivalLane="6o_0" arrivalPos="492.80" arrivalSpeed="10.24" duration="86.00" routeLength="994.90" waitingTime="0.00" waitingCount="0" stopTime="0.00" timeLoss="14.54" rerouteNo="0" devices="tripinfo_9_55" vType="DEFAULT_VEHTYPE" speedFactor="0.99" vaporized=""/>
    <tripinfo id="12_60" depart="62.00" departLane="2i_0" departPos="5.10" departSpeed="0.00" departDelay="2.00" arrival="142.00" arrivalLane="3o_0" arrivalPos="492.80" arrivalSpeed="9.84" duration="80.00" routeLength="994.90" waitingTime="0.00" waitingCount="0" stopTime="0.00" timeLoss="8.99" rerouteNo="0" devices="tripinfo_12_60" vType="DEFAULT_VEHTYPE" speedFactor="0.99" vaporized=""/>
    <tripinfo id="1_13" depart="13.00" departLane="4i_0" departPos="5.10" departSpeed="0.00" departDelay="0.00" arrival="143.00" arrivalLane="5o_0" arrivalPos="492.80" arrivalSpeed="10.65" duration="130.00" routeLength="1494.90" waitingTime="7.00" waitingCount="1" stopTime="0.00" timeLoss="22.29" rerouteNo="0" devices="tripinfo_1_13" vType="DEFAULT_VEHTYPE" speedFactor="1.08" vaporized=""/>
    <tripinfo id="10_56" depart="56.00" departLane="6i_0" departPos="5.10" departSpeed="0.00" departDelay="0.00" arrival="156.00" arrivalLane="7o_0" arrivalPos="492.80" arrivalSpeed="9.23" duration="100.00" routeLength="994.90" waitingTime="6.00" waitingCount="1" stopTime="0.00" timeLoss="22.40" rerouteNo="0" devices="tripinfo_10_56" vType="DEFAULT_VEHTYPE" speedFactor="0.91" vaporized=""/>
    <tripinfo id="16_81" depart="81.00" departLane="3i_0" departPos="5.10" departSpeed="0.00" departDelay="0.00" arrival="163.00" arrivalLane="2o_0" arrivalPos="492.80" arrivalSpeed="9.63" duration="82.00" routeLength="994.90" waitingTime="0.00" waitingCount="0" stopTime="0.00" timeLoss="8.17" rerouteNo="0" devices="tripinfo_16_81" vType="DEFAULT_VEHTYPE" speedFactor="0.96" vaporized=""/>
    <tripinfo id="13_61" depart="61.00" departLane="6i_0" departPos="5.10" departSpeed="0.00" departDelay="0.00" arrival="166.00" arrivalLane="7o_0" arrivalPos="492.80" arrivalSpeed="11.19" duration="105.00" routeLength="994.90" waitingTime="17.00" waitingCount="2" stopTime="0.00" timeLoss="35.62" rerouteNo="0" devices="tripinfo_13_61" vType="DEFAULT_VEHTYPE" speedFactor="1.02" vaporized=""/>
    <tripinfo id="14_64" depart="64.00" departLane="6i_0" departPos="5.10" departSpeed="0.00" departDelay="0.00" arrival="168.00" arrivalLane="7o_0" arrivalPos="492.80" arrivalSpeed="10.97" duration="104.00" routeLength="994.90" waitingTime="15.00" waitingCount="2" stopTime="0.00" timeLoss="34.84" rerouteNo="0" devices="tripinfo_14_64" vType="DEFAULT_VEHTYPE" speedFactor="1.02" vaporized=""/>
    <tripinfo id="17_88" depart="88.00" departLane="2i_0" departPos="5.10" departSpeed="0.00" departDelay="0.00" arrival="172.00" arrivalLane="3o_0" arrivalPos="492.80" arrivalSpeed="10.04" duration="84.00" routeLength="994.90" waitingTime="0.00" waitingCount="0" stopTime="0.00" timeLoss="7.91" rerouteNo="0" devices="tripinfo_17_88" vType="DEFAULT_VEHTYPE" speedFactor="0.94" vaporized=""/>
    <tripinfo id="18_96" depart="96.00" departLane="2i_0" departPos="5.10" departSpeed="0.00" departDelay="0.00" arrival="174.00" arrivalLane="3o_0" arrivalPos="492.80" arrivalSpeed="10.70" duration="78.00" routeLength="994.90" waitingTime="0.00" waitingCount="0" stopTime="0.00" timeLoss="8.50" rerouteNo="0" devices="tripinfo_18_96" vType="DEFAULT_VEHTYPE" speedFactor="1.03" vaporized=""/>
    <tripinfo id="21_109" depart="111.00" departLane="7i_0" departPos="5.10" departSpeed="0.00" departDelay="2.00" arrival="179.00" arrivalLane="6o_0" arrivalPos="492.80" arrivalSpeed="13.02" duration="68.00" routeLength="994.90" waitingTime="0.00" waitingCount="0" stopTime="0.00" timeLoss="7.97" rerouteNo="0" devices="tripinfo_21_109" vType="DEFAULT_VEHTYPE" speedFactor="1.19" vaporized=""/>
    <tripinfo id="22_112" depart="112.00" departLane="6i_0" departPos="5.10" departSpeed="0.00" departDelay="0.00" arrival="186.00" arrivalLane="7o_0" arrivalPos="492.80" arrivalSpeed="11.48" duration="74.00" routeLength="994.90" waitingTime="0.00" waitingCount="0" stopTime="0.00" timeLoss="8.48" rerouteNo="0" devices="tripinfo_22_112" vType="DEFAULT_VEHTYPE" speedFactor="1.08" vaporized=""/>
    <tripinfo id="24_124" depart="124.00" departLane="7i_0" departPos="5.10" departSpeed="0.00" departDelay="0.00" arrival="193.00" arrivalLane="6o_0" arrivalPos="492.80" arrivalSpeed="12.95" duration="69.00" routeLength="994.90" waitingTime="0.00" waitingCount="0" stopTime="0.00" timeLoss="7.97" rerouteNo="0" devices="tripinfo_24_124" vType="DEFAULT_VEHTYPE" speedFactor="1.17" vaporized=""/>
    <tripinfo id="19_100" depart="100.00" departLane="2i_0" departPos="5.10" departSpeed="0.00" departDelay="0.00" arrival="197.00" arrivalLane="3o_0" arrivalPos="492.80" arrivalSpeed="8.15" duration="97.00" routeLength="994.90" waitingTime="0.00" waitingCount="0" stopTime="0.00" timeLoss="9.49" rerouteNo="0" devices="tripinfo_19_100" vType="DEFAULT_VEHTYPE" speedFactor="0.81" vaporized=""/>
    <tripinfo id="28_156" depart="156.00" departLane="7i_0" departPos="5.10" departSpeed="0.00" departDelay="0.00" arrival="228.00" arrivalLane="6o_0" arrivalPos="492.80" arrivalSpeed="11.83" duration="72.00" routeLength="994.90" waitingTime="0.00" waitingCount="0" stopTime="0.00" timeLoss="8.20" rerouteNo="0" devices="tripinfo_28_156" vType="DEFAULT_VEHTYPE" speedFactor="1.12" vaporized=""/>
    <tripinfo id="26_145" depart="145.00" departLane="2i_0" departPos="5.10" departSpeed="0.00" departDelay="0.00" arrival="233.00" arrivalLane="3o_0" arrivalPos="492.80" arrivalSpeed="9.00" duration="88.00" routeLength="994.90" waitingTime="0.00" waitingCount="0" stopTime="0.00" timeLoss="8.44" rerouteNo="0" devices="tripinfo_26_145" vType="DEFAULT_VEHTYPE" speedFactor="0.89" vaporized=""/>
    <tripinfo id="3_17" depart="17.00" departLane="5i_0" departPos="5.10" departSpeed="0.00" departDelay="0.00" arrival="241.00" arrivalLane="4o_0" arrivalPos="492.80" arrivalSpeed="9.17" duration="224.00" routeLength="1494.90" waitingTime="92.00" waitingCount="1" stopTime="0.00" timeLoss="109.06" rerouteNo="0" devices="tripinfo_3_17" vType="DEFAULT_VEHTYPE" speedFactor="0.84" vaporized=""/>
    <tripinfo id="8_53" depart="53.00" departLane="5i_0" departPos="5.10" departSpeed="0.00" departDelay="0.00" arrival="245.00" arrivalLane="4o_0" arrivalPos="492.80" arrivalSpeed="9.60" duration="192.00" routeLength="1494.90" waitingTime="72.00" waitingCount="2" stopTime="0.00" timeLoss="91.45" rerouteNo="0" devices="tripinfo_8_53" vType="DEFAULT_VEHTYPE" speedFactor="0.96" vaporized=""/>
    <tripinfo id="30_183" depart="183.00" departLane="6i_0" departPos="5.10" departSpeed="0.00" departDelay="0.00" arrival="247.00" arrivalLane="7o_0" arrivalPos="492.80" arrivalSpeed="13.98" duration="64.00" routeLength="994.90" waitingTime="0.00" waitingCount="0" stopTime="0.00" timeLoss="7.92" rerouteNo="0" devices="tripinfo_30_183" vType="DEFAULT_VEHTYPE" speedFactor="1.26" vaporized=""/>
    <tripinfo id="29_165" depart="165.00" departLane="2i_0" departPos="5.10" departSpeed="0.00" departDelay="0.00" arrival="255.00" arrivalLane="3o_0" arrivalPos="492.80" arrivalSpeed="9.77" duration="90.00" routeLength="994.90" waitingTime="0.00" waitingCount="0" stopTime="0.00" timeLoss="13.33" rerouteNo="0" devices="tripinfo_29_165" vType="DEFAULT_VEHTYPE" speedFactor="0.93" vaporized=""/>
    <tripinfo id="31_190" depart="190.00" departLane="7i_0" departPos="5.10" departSpeed="0.00" departDelay="0.00" arrival="279.00" arrivalLane="6o_0" arrivalPos="492.80" arrivalSpeed="8.84" duration="89.00" routeLength="994.90" waitingTime="0.00" waitingCount="0" stopTime="0.00" timeLoss="8.89" rerouteNo="0" devices="tripinfo_31_190" vType="DEFAULT_VEHTYPE" speedFactor="0.89" vaporized=""/>
    <tripinfo id="33_195" depart="195.00" departLane="7i_0" departPos="5.10" departSpeed="0.00" departDelay="0.00" arrival="280.00" arrivalLane="6o_0" arrivalPos="492.80" arrivalSpeed="10.42" duration="85.00" routeLength="994.90" waitingTime="0.00" waitingCount="0" stopTime="0.00" timeLoss="14.75" rerouteNo="0" devices="tripinfo_33_195" vType="DEFAULT_VEHTYPE" speedFactor="1.01" vaporized=""/>
    <tripinfo id="37_222" depart="222.00" departLane="3i_0" departPos="5.10" departSpeed="0.00" departDelay="0.00" arrival="298.00" arrivalLane="2o_0" arrivalPos="492.80" arrivalSpeed="11.43" duration="76.00" routeLength="994.90" waitingTime="0.00" waitingCount="0" stopTime="0.00" timeLoss="7.54" rerouteNo="0" devices="tripinfo_37_222" vType="DEFAULT_VEHTYPE" speedFactor="1.05" vaporized=""/>
    <tripinfo id="39_233" depart="233.00" departLane="3i_0" departPos="5.10" departSpeed="0.00" departDelay="0.00" arrival="312.00" arrivalLane="2o_0" arrivalPos="492.80" arrivalSpeed="10.73" duration="79.00" routeLength="994.90" waitingTime="0.00" waitingCount="0" stopTime="0.00" timeLoss="8.82" rerouteNo="0" devices="tripinfo_39_233" vType="DEFAULT_VEHTYPE" speedFactor="1.01" vaporized=""/>
    <tripinfo id="40_235" depart="235.00" departLane="7i_0" departPos="5.10" departSpeed="0.00" departDelay="0.00" arrival="312.00" arrivalLane="6o_0" arrivalPos="492.80" arrivalSpeed="10.54" duration="77.00" routeLength="994.90" waitingTime="0.00" waitingCount="0" stopTime="0.00" timeLoss="8.33" rerouteNo="0" devices="tripinfo_40_235" vType="DEFAULT_VEHTYPE" speedFactor="1.04" vaporized=""/>
    <tripinfo id="41_242" depart="242.00" departLane="7i_0" departPos="5.10" departSpeed="0.00" departDelay="0.00" arrival="316.00" arrivalLane="6o_0" arrivalPos="492.80" arrivalSpeed="11.09" duration="74.00" routeLength="994.90" waitingTime="0.00" waitingCount="0" stopTime="0.00" timeLoss="8.09" rerouteNo="0" devices="tripinfo_41_242" vType="DEFAULT_VEHTYPE" speedFactor="1.07" vaporized=""/>
    <tripinfo id="43_252" depart="252.00" departLane="3i_0" departPos="5.10" departSpeed="0.00" departDelay="0.00" arrival="323.00" arrivalLane="2o_0" arrivalPos="492.80" arrivalSpeed="11.59" duration="71.00" routeLength="994.90" waitingTime="0.00" waitingCount="0" stopTime="0.00" timeLoss="7.75" rerouteNo="0" devices="tripinfo_43_252" vType="DEFAULT_VEHTYPE" speedFactor="1.12" vaporized=""/>
    <tripinfo id="42_248" depart="248.00" departLane="7i_0" departPos="5.10" departSpeed="0.00" departDelay="0.00" arrival="334.00" arrivalLane="6o_0" arrivalPos="492.80" arrivalSpeed="9.60" duration="86.00" routeLength="994.90" waitingTime="0.00" waitingCount="0" stopTime="0.00" timeLoss="8.66" rerouteNo="0" devices="tripinfo_42_248" vType="DEFAULT_VEHTYPE" speedFactor="0.92" vaporized=""/>
    <tripinfo id="45_268" depart="268.00" departLane="3i_0" departPos="5.10" departSpeed="0.00" departDelay="0.00" arrival="346.00" arrivalLane="2o_0" arrivalPos="492.80" arrivalSpeed="10.54" duration="78.00" routeLength="994.90" waitingTime="0.00" waitingCount="0" stopTime="0.00" timeLoss="7.45" rerouteNo="0" devices="tripinfo_45_268" vType="DEFAULT_VEHTYPE" speedFactor="1.01" vaporized=""/>
    <tripinfo id="49_290" depart="290.00" departLane="2i_0" departPos="5.10" departSpeed="0.00" departDelay="0.00" arrival="369.00" arrivalLane="3o_0" arrivalPos="492.80" arrivalSpeed="11.10" duration="79.00" routeLength="994.90" waitingTime="0.00" waitingCount="0" stopTime="0.00" timeLoss="8.68" rerouteNo="0" devices="tripinfo_49_290" vType="DEFAULT_VEHTYPE" speedFactor="1.02" vaporized=""/>
    <tripinfo id="48_288" depart="288.00" departLane="6i_0" departPos="5.10" departSpeed="0.00" departDelay="0.00" arrival="373.00" arrivalLane="7o_0" arrivalPos="492.80" arrivalSpeed="10.11" duration="85.00" routeLength="994.90" waitingTime="0.00" waitingCount="0" stopTime="0.00" timeLoss="8.47" rerouteNo="0" devices="tripinfo_48_288" vType="DEFAULT_VEHTYPE" speedFactor="0.93" vaporized=""/>
    <tripinfo id="52_317" depart="317.00" departLane="7i_0" departPos="5.10" departSpeed="0.00" departDelay="0.00" arrival="402.00" arrivalLane="6o_0" arrivalPos="492.80" arrivalSpeed="9.69" duration="85.00" routeLength="994.90" waitingTime="0.00" waitingCount="0" stopTime="0.00" timeLoss="7.80" rerouteNo="0" devices="tripinfo_52_317" vType="DEFAULT_VEHTYPE" speedFactor="0.92" vaporized=""/>
    <tripinfo id="55_331" depart="331.00" departLane="2i_0" departPos="5.10" departSpeed="0.00" departDelay="0.00" arrival="403.00" arrivalLane="3o_0" arrivalPos="492.80" arrivalSpeed="11.78" duration="72.00" routeLength="994.90" waitingTime="0.00" waitingCount="0" stopTime="0.00" timeLoss="7.30" rerouteNo="0" devices="tripinfo_55_331" vType="DEFAULT_VEHTYPE" speedFactor="1.11" vaporized=""/>
    <tripinfo id="53_318" depart="318.00" departLane="6i_0" departPos="5.10" departSpeed="0.00" departDelay="0.00" arrival="409.00" arrivalLane="7o_0" arrivalPos="492.80" arrivalSpeed="8.66" duration="91.00" routeLength="994.90" waitingTime="0.00" waitingCount="0" stopTime="0.00" timeLoss="8.71" rerouteNo="0" devices="tripinfo_53_318" vType="DEFAULT_VEHTYPE" speedFactor="0.86" vaporized=""/>
    <tripinfo id="7_45" depart="45.00" departLane="4i_0" departPos="5.10" departSpeed="0.00" departDelay="0.00" arrival="434.00" arrivalLane="5o_0" arrivalPos="492.80" arrivalSpeed="9.20" duration="389.00" routeLength="1494.90" waitingTime="236.00" waitingCount="1" stopTime="0.00" timeLoss="253.37" rerouteNo="0" devices="tripinfo_7_45" vType="DEFAULT_VEHTYPE" speedFactor="0.85" vaporized=""/>
    <tripinfo id="15_78" depart="78.00" departLane="4i_0" departPos="5.10" departSpeed="0.00" departDelay="0.00" arrival="436.00" arrivalLane="5o_0" arrivalPos="492.80" arrivalSpeed="10.23" duration="358.00" routeLength="1494.90" waitingTime="213.00" waitingCount="2" stopTime="0.00" timeLoss="244.49" rerouteNo="0" devices="tripinfo_15_78" vType="DEFAULT_VEHTYPE" speedFactor="1.02" vaporized=""/>
    <tripinfo id="25_135" depart="135.00" departLane="4i_0" departPos="5.10" departSpeed="0.00" departDelay="0.00" arrival="438.00" arrivalLane="5o_0" arrivalPos="492.80" arrivalSpeed="12.35" duration="303.00" routeLength="1494.90" waitingTime="162.00" waitingCount="3" stopTime="0.00" timeLoss="204.28" rerouteNo="0" devices="tripinfo_25_135" vType="DEFAULT_VEHTYPE" speedFactor="1.18" vaporized=""/>
    <tripinfo id="57_340" depart="340.00" departLane="3i_0" departPos="5.10" departSpeed="0.00" departDelay="0.00" arrival="439.00" arrivalLane="2o_0" arrivalPos="492.80" arrivalSpeed="9.25" duration="99.00" routeLength="994.90" waitingTime="1.00" waitingCount="1" stopTime="0.00" timeLoss="15.58" rerouteNo="0" devices="tripinfo_57_340" vType="DEFAULT_VEHTYPE" speedFactor="0.85" vaporized=""/>
    <tripinfo id="27_148" depart="148.00" departLane="4i_0" departPos="5.10" departSpeed="0.00" departDelay="0.00" arrival="440.00" arrivalLane="5o_0" arrivalPos="492.80" arrivalSpeed="8.70" duration="292.00" routeLength="1494.90" waitingTime="131.00" waitingCount="2" stopTime="0.00" timeLoss="161.77" rerouteNo="0" devices="tripinfo_27_148" vType="DEFAULT_VEHTYPE" speedFactor="0.89" vaporized=""/>
    <tripinfo id="58_344" depart="344.00" departLane="3i_0" departPos="5.10" departSpeed="0.00" departDelay="0.00" arrival="441.00" arrivalLane="2o_0" arrivalPos="492.80" arrivalSpeed="9.78" duration="97.00" routeLength="994.90" waitingTime="0.00" waitingCount="0" stopTime="0.00" timeLoss="25.14" rerouteNo="0" devices="tripinfo_58_344" vType="DEFAULT_VEHTYPE" speedFactor="0.99" vaporized=""/>
    <tripinfo id="32_191" depart="191.00" departLane="4i_0" departPos="5.10" departSpeed="0.00" departDelay="0.00" arrival="442.00" arrivalLane="5o_0" arrivalPos="492.80" arrivalSpeed="10.25" duration="251.00" routeLength="1494.90" waitingTime="106.00" waitingCount="1" stopTime="0.00" timeLoss="128.70" rerouteNo="0" devices="tripinfo_32_191" vType="DEFAULT_VEHTYPE" speedFactor="0.95" vaporized=""/>
    <tripinfo id="35_210" depart="210.00" departLane="4i_0" departPos="5.10" departSpeed="0.00" departDelay="0.00" arrival="444.00" arrivalLane="5o_0" arrivalPos="492.80" arrivalSpeed="10.82" duration="234.00" routeLength="1494.90" waitingTime="94.00" waitingCount="1" stopTime="0.00" timeLoss="121.18" rerouteNo="0" devices="tripinfo_35_210" vType="DEFAULT_VEHTYPE" speedFactor="1.03" vaporized=""/>
    <tripinfo id="63_376" depart="376.00" departLane="6i_0" departPos="5.10" departSpeed="0.00" departDelay="0.00" arrival="451.00" arrivalLane="7o_0" arrivalPos="492.80" arrivalSpeed="10.78" duration="75.00" routeLength="994.90" waitingTime="0.00" waitingCount="0" stopTime="0.00" timeLoss="7.34" rerouteNo="0" devices="tripinfo_63_376" vType="DEFAULT_VEHTYPE" speedFactor="1.05" vaporized=""/>
    <tripinfo id="62_364" depart="364.00" departLane="7i_0" departPos="5.10" departSpeed="0.00" departDelay="0.00" arrival="456.00" arrivalLane="6o_0" arrivalPos="492.80" arrivalSpeed="9.61" duration="92.00" routeLength="994.90" waitingTime="2.00" waitingCount="1" stopTime="0.00" timeLoss="16.25" rerouteNo="0" devices="tripinfo_62_364" vType="DEFAULT_VEHTYPE" speedFactor="0.94" vaporized=""/>
    <tripinfo id="65_387" depart="387.00" departLane="3i_0" departPos="5.10" departSpeed="0.00" departDelay="0.00" arrival="466.00" arrivalLane="2o_0" arrivalPos="492.80" arrivalSpeed="10.09" duration="79.00" routeLength="994.90" waitingTime="0.00" waitingCount="0" stopTime="0.00" timeLoss="8.02" rerouteNo="0" devices="tripinfo_65_387" vType="DEFAULT_VEHTYPE" speedFactor="1.00" vaporized=""/>
    <tripinfo id="67_392" depart="392.00" departLane="2i_0" departPos="5.10" departSpeed="0.00" departDelay="0.00" arrival="477.00" arrivalLane="3o_0" arrivalPos="492.80" arrivalSpeed="9.30" duration="85.00" routeLength="994.90" waitingTime="0.00" waitingCount="0" stopTime="0.00" timeLoss="8.39" rerouteNo="0" devices="tripinfo_67_392" vType="DEFAULT_VEHTYPE" speedFactor="0.93" vaporized=""/>
    <tripinfo id="68_397" depart="397.00" departLane="2i_0" departPos="5.10" departSpeed="0.00" departDelay="0.00" arrival="483.00" arrivalLane="3o_0" arrivalPos="492.80" arrivalSpeed="9.19" duration="86.00" routeLength="994.90" waitingTime="0.00" waitingCount="0" stopTime="0.00" timeLoss="8.16" rerouteNo="0" devices="tripinfo_68_397" vType="DEFAULT_VEHTYPE" speedFactor="0.91" vaporized=""/>
    <tripinfo id="74_418" depart="418.00" departLane="3i_0" departPos="5.10" departSpeed="0.00" departDelay="0.00" arrival="489.00" arrivalLane="2o_0" arrivalPos="492.80" arrivalSpeed="12.52" duration="71.00" routeLength="994.90" waitingTime="0.00" waitingCount="0" stopTime="0.00" timeLoss="8.12" rerouteNo="0" devices="tripinfo_74_418" vType="DEFAULT_VEHTYPE" speedFactor="1.13" vaporized=""/>
    <tripinfo id="44_255" depart="255.00" departLane="4i_0" departPos="5.10" departSpeed="0.00" departDelay="0.00" arrival="497.00" arrivalLane="5o_0" arrivalPos="492.80" arrivalSpeed="9.59" duration="242.00" routeLength="1494.90" waitingTime="104.00" waitingCount="2" stopTime="0.00" timeLoss="123.79" rerouteNo="0" devices="tripinfo_44_255" vType="DEFAULT_VEHTYPE" speedFactor="0.98" vaporized=""/>
    <tripinfo id="75_419" depart="419.00" departLane="7i_0" departPos="5.10" departSpeed="0.00" departDelay="0.00" arrival="508.00" arrivalLane="6o_0" arrivalPos="492.80" arrivalSpeed="9.72" duration="89.00" routeLength="994.90" waitingTime="0.00" waitingCount="0" stopTime="0.00" timeLoss="8.13" rerouteNo="0" devices="tripinfo_75_419" vType="DEFAULT_VEHTYPE" speedFactor="0.88" vaporized=""/>
    <tripinfo id="77_423" depart="423.00" departLane="3i_0" departPos="5.10" departSpeed="0.00" departDelay="0.00" arrival="508.00" arrivalLane="2o_0" arrivalPos="492.80" arrivalSpeed="10.17" duration="85.00" routeLength="994.90" waitingTime="0.00" waitingCount="0" stopTime="0.00" timeLoss="7.96" rerouteNo="0" devices="tripinfo_77_423" vType="DEFAULT_VEHTYPE" speedFactor="0.92" vaporized=""/>
    <tripinfo id="76_422" depart="422.00" departLane="7i_0" departPos="5.10" departSpeed="0.00" departDelay="0.00" arrival="510.00" arrivalLane="6o_0" arrivalPos="492.80" arrivalSpeed="10.13" duration="88.00" routeLength="994.90" waitingTime="0.00" waitingCount="0" stopTime="0.00" timeLoss="15.58" rerouteNo="0" devices="tripinfo_76_422" vType="DEFAULT_VEHTYPE" speedFactor="0.98" vaporized=""/>
    <tripinfo id="78_427" depart="427.00" departLane="6i_0" departPos="5.10" departSpeed="0.00" departDelay="0.00" arrival="512.00" arrivalLane="7o_0" arrivalPos="492.80" arrivalSpeed="9.15" duration="85.00" routeLength="994.90" waitingTime="0.00" waitingCount="0" stopTime="0.00" timeLoss="8.41" rerouteNo="0" devices="tripinfo_78_427" vType="DEFAULT_VEHTYPE" speedFactor="0.93" vaporized=""/>
    <tripinfo id="83_444" depart="444.00" departLane="6i_0" departPos="5.10" departSpeed="0.00" departDelay="0.00" arrival="516.00" arrivalLane="7o_0" arrivalPos="492.80" arrivalSpeed="11.42" duration="72.00" routeLength="994.90" waitingTime="0.00" waitingCount="0" stopTime="0.00" timeLoss="7.58" rerouteNo="0" devices="tripinfo_83_444" vType="DEFAULT_VEHTYPE" speedFactor="1.10" vaporized=""/>
    <tripinfo id="84_458" depart="458.00" departLane="6i_0" departPos="5.10" departSpeed="0.00" departDelay="0.00" arrival="528.00" arrivalLane="7o_0" arrivalPos="492.80" arrivalSpeed="11.74" duration="70.00" routeLength="994.90" waitingTime="0.00" waitingCount="0" stopTime="0.00" timeLoss="8.25" rerouteNo="0" devices="tripinfo_84_458" vType="DEFAULT_VEHTYPE" speedFactor="1.16" vaporized=""/>
    <tripinfo id="85_460" depart="461.00" departLane="6i_0" departPos="5.10" departSpeed="0.00" departDelay="1.00" arrival="548.00" arrivalLane="7o_0" arrivalPos="492.80" arrivalSpeed="9.76" duration="87.00" routeLength="994.90" waitingTime="0.00" waitingCount="0" stopTime="0.00" timeLoss="9.13" rerouteNo="0" devices="tripinfo_85_460" vType="DEFAULT_VEHTYPE" speedFactor="0.91" vaporized=""/>
    <tripinfo id="88_464" depart="464.00" departLane="7i_0" departPos="5.10" departSpeed="0.00" departDelay="0.00" arrival="549.00" arrivalLane="6o_0" arrivalPos="492.80" arrivalSpeed="10.01" duration="85.00" routeLength="994.90" waitingTime="0.00" waitingCount="0" stopTime="0.00" timeLoss="8.60" rerouteNo="0" devices="tripinfo_88_464" vType="DEFAULT_VEHTYPE" speedFactor="0.93" vaporized=""/>
    <tripinfo id="90_466" depart="467.00" departLane="7i_0" departPos="5.10" departSpeed="0.00" departDelay="1.00" arrival="551.00" arrivalLane="6o_0" arrivalPos="492.80" arrivalSpeed="12.38" duration="84.00" routeLength="994.90" waitingTime="0.00" waitingCount="0" stopTime="0.00" timeLoss="20.72" rerouteNo="0" devices="tripinfo_90_466" vType="DEFAULT_VEHTYPE" speedFactor="1.13" vaporized=""/>
    <tripinfo id="87_462" depart="464.00" departLane="6i_0" departPos="5.10" departSpeed="0.00" departDelay="2.00" arrival="554.00" arrivalLane="7o_0" arrivalPos="492.80" arrivalSpeed="8.49" duration="90.00" routeLength="994.90" waitingTime="0.00" waitingCount="0" stopTime="0.00" timeLoss="9.01" rerouteNo="0" devices="tripinfo_87_462" vType="DEFAULT_VEHTYPE" speedFactor="0.88" vaporized=""/>
    <tripinfo id="92_472" depart="472.00" departLane="6i_0" departPos="5.10" departSpeed="0.00" departDelay="0.00" arrival="556.00" arrivalLane="7o_0" arrivalPos="492.80" arrivalSpeed="10.73" duration="84.00" routeLength="994.90" waitingTime="0.00" waitingCount="0" stopTime="0.00" timeLoss="13.56" rerouteNo="0" devices="tripinfo_92_472" vType="DEFAULT_VEHTYPE" speedFactor="1.01" vaporized=""/>
    <tripinfo id="93_478" depart="478.00" departLane="6i_0" departPos="5.10" departSpeed="0.00" departDelay="0.00" arrival="557.00" arrivalLane="7o_0" arrivalPos="492.80" arrivalSpeed="11.75" duration="79.00" routeLength="994.90" waitingTime="0.00" waitingCount="0" stopTime="0.00" timeLoss="15.82" rerouteNo="0" devices="tripinfo_93_478" vType="DEFAULT_VEHTYPE" speedFactor="1.12" vaporized=""/>
    <tripinfo id="94_480" depart="480.00" departLane="3i_0" departPos="5.10" departSpeed="0.00" departDelay="0.00" arrival="561.00" arrivalLane="2o_0" arrivalPos="492.80" arrivalSpeed="9.75" duration="81.00" routeLength="994.90" waitingTime="0.00" waitingCount="0" stopTime="0.00" timeLoss="7.79" rerouteNo="0" devices="tripinfo_94_480" vType="DEFAULT_VEHTYPE" speedFactor="0.96" vaporized=""/>
    <tripinfo id="95_481" depart="481.00" departLane="6i_0" departPos="5.10" departSpeed="0.00" departDelay="0.00" arrival="568.00" arrivalLane="7o_0" arrivalPos="492.80" arrivalSpeed="9.52" duration="87.00" routeLength="994.90" waitingTime="0.00" waitingCount="0" stopTime="0.00" timeLoss="8.22" rerouteNo="0" devices="tripinfo_95_481" vType="DEFAULT_VEHTYPE" speedFactor="0.90" vaporized=""/>
    <tripinfo id="96_487" depart="489.00" departLane="2i_0" departPos="5.10" departSpeed="0.00" departDelay="2.00" arrival="574.00" arrivalLane="3o_0" arrivalPos="492.80" arrivalSpeed="9.30" duration="85.00" routeLength="994.90" waitingTime="0.00" waitingCount="0" stopTime="0.00" timeLoss="8.02" rerouteNo="0" devices="tripinfo_96_487" vType="DEFAULT_VEHTYPE" speedFactor="0.92" vaporized=""/>
    <tripinfo id="98_496" depart="496.00" departLane="6i_0" departPos="5.10" departSpeed="0.00" departDelay="0.00" arrival="580.00" arrivalLane="7o_0" arrivalPos="492.80" arrivalSpeed="9.30" duration="84.00" routeLength="994.90" waitingTime="0.00" waitingCount="0" stopTime="0.00" timeLoss="8.96" rerouteNo="0" devices="tripinfo_98_496" vType="DEFAULT_VEHTYPE" speedFactor="0.95" vaporized=""/>
    <tripinfo id="99_498" depart="499.00" departLane="6i_0" departPos="5.10" departSpeed="0.00" departDelay="1.00" arrival="582.00" arrivalLane="7o_0" arrivalPos="492.80" arrivalSpeed="11.47" duration="83.00" routeLength="994.90" waitingTime="0.00" waitingCount="0" stopTime="0.00" timeLoss="16.45" rerouteNo="0" devices="tripinfo_99_498" vType="DEFAULT_VEHTYPE" speedFactor="1.07" vaporized=""/>
    <tripinfo id="101_512" depart="512.00" departLane="2i_0" departPos="5.10" departSpeed="0.00" departDelay="0.00" arrival="592.00" arrivalLane="3o_0" arrivalPos="492.80" arrivalSpeed="10.29" duration="80.00" routeLength="994.90" waitingTime="0.00" waitingCount="0" stopTime="0.00" timeLoss="7.51" rerouteNo="0" devices="tripinfo_101_512" vType="DEFAULT_VEHTYPE" speedFactor="0.98" vaporized=""/>
    <tripinfo id="102_536" depart="536.00" departLane="3i_0" departPos="5.10" departSpeed="0.00" departDelay="0.00" arrival="614.00" arrivalLane="2o_0" arrivalPos="492.80" arrivalSpeed="11.06" duration="78.00" routeLength="994.90" waitingTime="0.00" waitingCount="0" stopTime="0.00" timeLoss="8.56" rerouteNo="0" devices="tripinfo_102_536" vType="DEFAULT_VEHTYPE" speedFactor="1.03" vaporized=""/>