<?xml version="1.0" encoding="UTF-8"?>

<!-- generated on Tue Oct 29 14:48:07 2019 by Eclipse SUMO Version 1.2.0
<configuration xmlns:xsi="http://www.w3.org/2001/XMLSchema-instance" xsi:noNamespaceSchemaLocation="http://sumo.dlr.de/xsd/sumoConfiguration.xsd">

    <input>
        <net-file value="/home/azlaans/aienvs/aienvs/Sumo/../../scenarios/Sumo/vertical_intersection/vertical.net.xml"/>
        <route-files value="/home/azlaans/aienvs/aienvs/Sumo/../../scenarios/Sumo/vertical_intersection/18015_routes.rou.xml"/>
    </input>

    <output>
        <tripinfo-output value="/home/azlaans/aienvs/aienvs/Sumo/../../test/Stats/vertical/tripinfo.xml"/>
    </output>

    <time>
        <begin value="0"/>
    </time>

    <report>
        <verbose value="true"/>
        <no-step-log value="true"/>
    </report>

    <traci_server>
        <remote-port value="18015"/>
    </traci_server>

    <random_number>
        <seed value="1575351305"/>
    </random_number>

</configuration>
-->

<tripinfos xmlns:xsi="http://www.w3.org/2001/XMLSchema-instance" xsi:noNamespaceSchemaLocation="http://sumo.dlr.de/xsd/tripinfo_file.xsd">
    <tripinfo id="4_9" depart="9.00" departLane="2i_0" departPos="5.10" departSpeed="0.00" departDelay="0.00" arrival="82.00" arrivalLane="3o_0" arrivalPos="492.80" arrivalSpeed="11.27" duration="73.00" routeLength="994.90" waitingTime="0.00" waitingCount="0" stopTime="0.00" timeLoss="9.41" rerouteNo="0" devices="tripinfo_4_9" vType="DEFAULT_VEHTYPE" speedFactor="1.11" vaporized=""/>
    <tripinfo id="12_23" depart="23.00" departLane="3i_0" departPos="5.10" departSpeed="0.00" departDelay="0.00" arrival="95.00" arrivalLane="2o_0" arrivalPos="492.80" arrivalSpeed="11.38" duration="72.00" routeLength="994.90" waitingTime="0.00" waitingCount="0" stopTime="0.00" timeLoss="8.23" rerouteNo="0" devices="tripinfo_12_23" vType="DEFAULT_VEHTYPE" speedFactor="1.12" vaporized=""/>
    <tripinfo id="3_7" depart="7.00" departLane="6i_0" departPos="5.10" departSpeed="0.00" departDelay="0.00" arrival="108.00" arrivalLane="7o_0" arrivalPos="492.80" arrivalSpeed="11.39" duration="101.00" routeLength="994.90" waitingTime="20.00" waitingCount="1" stopTime="0.00" timeLoss="34.75" rerouteNo="0" devices="tripinfo_3_7" vType="DEFAULT_VEHTYPE" speedFactor="1.07" vaporized=""/>
    <tripinfo id="16_33" depart="33.00" departLane="3i_0" departPos="5.10" departSpeed="0.00" departDelay="0.00" arrival="113.00" arrivalLane="2o_0" arrivalPos="492.80" arrivalSpeed="10.00" duration="80.00" routeLength="994.90" waitingTime="0.00" waitingCount="0" stopTime="0.00" timeLoss="7.96" rerouteNo="0" devices="tripinfo_16_33" vType="DEFAULT_VEHTYPE" speedFactor="0.98" vaporized=""/>
    <tripinfo id="17_35" depart="36.00" departLane="3i_0" departPos="5.10" departSpeed="0.00" departDelay="1.00" arrival="115.00" arrivalLane="2o_0" arrivalPos="492.80" arrivalSpeed="11.64" duration="79.00" routeLength="994.90" waitingTime="0.00" waitingCount="0" stopTime="0.00" timeLoss="11.73" rerouteNo="0" devices="tripinfo_17_35" vType="DEFAULT_VEHTYPE" speedFactor="1.06" vaporized=""/>
    <tripinfo id="11_22" depart="22.00" departLane="2i_0" departPos="5.10" departSpeed="0.00" departDelay="0.00" arrival="116.00" arrivalLane="3o_0" arrivalPos="492.80" arrivalSpeed="9.68" duration="94.00" routeLength="994.90" waitingTime="4.00" waitingCount="1" stopTime="0.00" timeLoss="18.21" rerouteNo="0" devices="tripinfo_11_22" vType="DEFAULT_VEHTYPE" speedFactor="0.94" vaporized=""/>
    <tripinfo id="14_27" depart="27.00" departLane="2i_0" departPos="5.10" departSpeed="0.00" departDelay="0.00" arrival="117.00" arrivalLane="3o_0" arrivalPos="492.80" arrivalSpeed="10.88" duration="90.00" routeLength="994.90" waitingTime="3.00" waitingCount="1" stopTime="0.00" timeLoss="25.04" rerouteNo="0" devices="tripinfo_14_27" vType="DEFAULT_VEHTYPE" speedFactor="1.09" vaporized=""/>
    <tripinfo id="21_43" depart="43.00" departLane="2i_0" departPos="5.10" departSpeed="0.00" departDelay="0.00" arrival="119.00" arrivalLane="3o_0" arrivalPos="492.80" arrivalSpeed="13.04" duration="76.00" routeLength="994.90" waitingTime="0.00" waitingCount="0" stopTime="0.00" timeLoss="16.31" rerouteNo="0" devices="tripinfo_21_43" vType="DEFAULT_VEHTYPE" speedFactor="1.19" vaporized=""/>
    <tripinfo id="6_14" depart="14.00" departLane="7i_0" departPos="5.10" departSpeed="0.00" departDelay="0.00" arrival="121.00" arrivalLane="6o_0" arrivalPos="492.80" arrivalSpeed="9.29" duration="107.00" routeLength="994.90" waitingTime="7.00" waitingCount="1" stopTime="0.00" timeLoss="22.53" rerouteNo="0" devices="tripinfo_6_14" vType="DEFAULT_VEHTYPE" speedFactor="0.84" vaporized=""/>
    <tripinfo id="23_47" depart="47.00" departLane="2i_0" departPos="5.10" departSpeed="0.00" departDelay="0.00" arrival="121.00" arrivalLane="3o_0" arrivalPos="492.80" arrivalSpeed="12.23" duration="74.00" routeLength="994.90" waitingTime="0.00" waitingCount="0" stopTime="0.00" timeLoss="10.42" rerouteNo="0" devices="tripinfo_23_47" vType="DEFAULT_VEHTYPE" speedFactor="1.12" vaporized=""/>
    <tripinfo id="22_44" depart="44.00" departLane="3i_0" departPos="5.10" departSpeed="0.00" departDelay="0.00" arrival="130.00" arrivalLane="2o_0" arrivalPos="492.80" arrivalSpeed="9.49" duration="86.00" routeLength="994.90" waitingTime="0.00" waitingCount="0" stopTime="0.00" timeLoss="8.82" rerouteNo="0" devices="tripinfo_22_44" vType="DEFAULT_VEHTYPE" speedFactor="0.91" vaporized=""/>
    <tripinfo id="5_13" depart="13.00" departLane="6i_0" departPos="5.10" departSpeed="0.00" departDelay="0.00" arrival="133.00" arrivalLane="7o_0" arrivalPos="492.80" arrivalSpeed="10.52" duration="120.00" routeLength="994.90" waitingTime="30.00" waitingCount="2" stopTime="0.00" timeLoss="49.07" rerouteNo="0" devices="tripinfo_5_13" vType="DEFAULT_VEHTYPE" speedFactor="1.00" vaporized=""/>
    <tripinfo id="15_28" depart="28.00" departLane="6i_0" departPos="5.10" departSpeed="0.00" departDelay="0.00" arrival="135.00" arrivalLane="7o_0" arrivalPos="492.80" arrivalSpeed="13.31" duration="107.00" routeLength="994.90" waitingTime="24.00" waitingCount="3" stopTime="0.00" timeLoss="48.65" rerouteNo="0" devices="tripinfo_15_28" vType="DEFAULT_VEHTYPE" speedFactor="1.21" vaporized=""/>
    <tripinfo id="25_51" depart="51.00" departLane="3i_0" departPos="5.10" departSpeed="0.00" departDelay="0.00" arrival="136.00" arrivalLane="2o_0" arrivalPos="492.80" arrivalSpeed="10.25" duration="85.00" routeLength="994.90" waitingTime="0.00" waitingCount="0" stopTime="0.00" timeLoss="9.12" rerouteNo="0" devices="tripinfo_25_51" vType="DEFAULT_VEHTYPE" speedFactor="0.93" vaporized=""/>
    <tripinfo id="27_56" depart="56.00" departLane="3i_0" departPos="5.10" departSpeed="0.00" departDelay="0.00" arrival="145.00" arrivalLane="2o_0" arrivalPos="492.80" arrivalSpeed="8.81" duration="89.00" routeLength="994.90" waitingTime="0.00" waitingCount="0" stopTime="0.00" timeLoss="8.73" rerouteNo="0" devices="tripinfo_27_56" vType="DEFAULT_VEHTYPE" speedFactor="0.88" vaporized=""/>
    <tripinfo id="7_16" depart="16.00" departLane="4i_0" departPos="5.10" departSpeed="0.00" departDelay="0.00" arrival="147.00" arrivalLane="5o_0" arrivalPos="492.80" arrivalSpeed="10.73" duration="131.00" routeLength="1494.90" waitingTime="4.00" waitingCount="1" stopTime="0.00" timeLoss="19.37" rerouteNo="0" devices="tripinfo_7_16" vType="DEFAULT_VEHTYPE" speedFactor="1.04" vaporized=""/>
    <tripinfo id="18_37" depart="37.00" departLane="6i_0" departPos="5.10" departSpeed="0.00" departDelay="0.00" arrival="150.00" arrivalLane="7o_0" arrivalPos="492.80" arrivalSpeed="10.78" duration="113.00" routeLength="994.90" waitingTime="23.00" waitingCount="3" stopTime="0.00" timeLoss="47.22" rerouteNo="0" devices="tripinfo_18_37" vType="DEFAULT_VEHTYPE" speedFactor="1.08" vaporized=""/>
    <tripinfo id="35_74" depart="74.00" departLane="2i_0" departPos="5.10" departSpeed="0.00" departDelay="0.00" arrival="153.00" arrivalLane="3o_0" arrivalPos="492.80" arrivalSpeed="10.44" duration="79.00" routeLength="994.90" waitingTime="0.00" waitingCount="0" stopTime="0.00" timeLoss="8.45" rerouteNo="0" devices="tripinfo_35_74" vType="DEFAULT_VEHTYPE" speedFactor="1.00" vaporized=""/>
    <tripinfo id="8_17" depart="19.00" departLane="4i_0" departPos="5.10" departSpeed="0.00" departDelay="2.00" arrival="155.00" arrivalLane="5o_0" arrivalPos="492.80" arrivalSpeed="11.47" duration="136.00" routeLength="1494.90" waitingTime="5.00" waitingCount="2" stopTime="0.00" timeLoss="29.40" rerouteNo="0" devices="tripinfo_8_17" vType="DEFAULT_VEHTYPE" speedFactor="1.09" vaporized=""/>
    <tripinfo id="36_77" depart="77.00" departLane="2i_0" departPos="5.10" departSpeed="0.00" departDelay="0.00" arrival="155.00" arrivalLane="3o_0" arrivalPos="492.80" arrivalSpeed="10.23" duration="78.00" routeLength="994.90" waitingTime="0.00" waitingCount="0" stopTime="0.00" timeLoss="7.99" rerouteNo="0" devices="tripinfo_36_77" vType="DEFAULT_VEHTYPE" speedFactor="1.01" vaporized=""/>
    <tripinfo id="34_73" depart="73.00" departLane="3i_0" departPos="5.10" departSpeed="0.00" departDelay="0.00" arrival="161.00" arrivalLane="2o_0" arrivalPos="492.80" arrivalSpeed="9.40" duration="88.00" routeLength="994.90" waitingTime="0.00" waitingCount="0" stopTime="0.00" timeLoss="8.74" rerouteNo="0" devices="tripinfo_34_73" vType="DEFAULT_VEHTYPE" speedFactor="0.90" vaporized=""/>
    <tripinfo id="37_79" depart="79.00" departLane="7i_0" departPos="5.10" departSpeed="0.00" departDelay="0.00" arrival="162.00" arrivalLane="6o_0" arrivalPos="492.80" arrivalSpeed="11.16" duration="83.00" routeLength="994.90" waitingTime="3.00" waitingCount="1" stopTime="0.00" timeLoss="16.53" rerouteNo="0" devices="tripinfo_37_79" vType="DEFAULT_VEHTYPE" speedFactor="1.07" vaporized=""/>
    <tripinfo id="19_38" depart="40.00" departLane="6i_0" departPos="5.10" departSpeed="0.00" departDelay="2.00" arrival="165.00" arrivalLane="7o_0" arrivalPos="492.80" arrivalSpeed="10.50" duration="125.00" routeLength="994.90" waitingTime="27.00" waitingCount="4" stopTime="0.00" timeLoss="54.42" rerouteNo="0" devices="tripinfo_19_38" vType="DEFAULT_VEHTYPE" speedFactor="1.01" vaporized=""/>
    <tripinfo id="48_99" depart="99.00" departLane="7i_0" departPos="5.10" departSpeed="0.00" departDelay="0.00" arrival="171.00" arrivalLane="6o_0" arrivalPos="492.80" arrivalSpeed="12.24" duration="72.00" routeLength="994.90" waitingTime="0.00" waitingCount="0" stopTime="0.00" timeLoss="8.53" rerouteNo="0" devices="tripinfo_48_99" vType="DEFAULT_VEHTYPE" speedFactor="1.11" vaporized=""/>
    <tripinfo id="42_91" depart="91.00" departLane="2i_0" departPos="5.10" departSpeed="0.00" departDelay="0.00" arrival="172.00" arrivalLane="3o_0" arrivalPos="492.80" arrivalSpeed="10.13" duration="81.00" routeLength="994.90" waitingTime="0.00" waitingCount="0" stopTime="0.00" timeLoss="8.31" rerouteNo="0" devices="tripinfo_42_91" vType="DEFAULT_VEHTYPE" speedFactor="0.98" vaporized=""/>
    <tripinfo id="24_48" depart="48.00" departLane="6i_0" departPos="5.10" departSpeed="0.00" departDelay="0.00" arrival="173.00" arrivalLane="7o_0" arrivalPos="492.80" arrivalSpeed="9.36" duration="125.00" routeLength="994.90" waitingTime="17.00" waitingCount="4" stopTime="0.00" timeLoss="45.98" rerouteNo="0" devices="tripinfo_24_48" vType="DEFAULT_VEHTYPE" speedFactor="0.90" vaporized=""/>
    <tripinfo id="26_55" depart="55.00" departLane="6i_0" departPos="5.10" departSpeed="0.00" departDelay="0.00" arrival="174.00" arrivalLane="7o_0" arrivalPos="492.80" arrivalSpeed="10.61" duration="119.00" routeLength="994.90" waitingTime="8.00" waitingCount="3" stopTime="0.00" timeLoss="46.07" rerouteNo="0" devices="tripinfo_26_55" vType="DEFAULT_VEHTYPE" speedFactor="0.97" vaporized=""/>
    <tripinfo id="29_64" depart="64.00" departLane="6i_0" departPos="5.10" departSpeed="0.00" departDelay="0.00" arrival="176.00" arrivalLane="7o_0" arrivalPos="492.80" arrivalSpeed="10.92" duration="112.00" routeLength="994.90" waitingTime="5.00" waitingCount="2" stopTime="0.00" timeLoss="45.18" rerouteNo="0" devices="tripinfo_29_64" vType="DEFAULT_VEHTYPE" speedFactor="1.06" vaporized=""/>
    <tripinfo id="44_93" depart="93.00" departLane="3i_0" departPos="5.10" departSpeed="0.00" departDelay="0.00" arrival="176.00" arrivalLane="2o_0" arrivalPos="492.80" arrivalSpeed="9.93" duration="83.00" routeLength="994.90" waitingTime="0.00" waitingCount="0" stopTime="0.00" timeLoss="8.22" rerouteNo="0" devices="tripinfo_44_93" vType="DEFAULT_VEHTYPE" speedFactor="0.94" vaporized=""/>
    <tripinfo id="32_68" depart="68.00" departLane="6i_0" departPos="5.10" departSpeed="0.00" departDelay="0.00" arrival="178.00" arrivalLane="7o_0" arrivalPos="492.80" arrivalSpeed="10.37" duration="110.00" routeLength="994.90" waitingTime="5.00" waitingCount="1" stopTime="0.00" timeLoss="37.59" rerouteNo="0" devices="tripinfo_32_68" vType="DEFAULT_VEHTYPE" speedFactor="0.98" vaporized=""/>
    <tripinfo id="39_83" depart="83.00" departLane="6i_0" departPos="5.10" departSpeed="0.00" departDelay="0.00" arrival="180.00" arrivalLane="7o_0" arrivalPos="492.80" arrivalSpeed="10.64" duration="97.00" routeLength="994.90" waitingTime="4.00" waitingCount="1" stopTime="0.00" timeLoss="29.49" rerouteNo="0" devices="tripinfo_39_83" vType="DEFAULT_VEHTYPE" speedFactor="1.05" vaporized=""/>
    <tripinfo id="47_97" depart="97.00" departLane="2i_0" departPos="5.10" departSpeed="0.00" departDelay="0.00" arrival="181.00" arrivalLane="3o_0" arrivalPos="492.80" arrivalSpeed="10.31" duration="84.00" routeLength="994.90" waitingTime="0.00" waitingCount="0" stopTime="0.00" timeLoss="8.84" rerouteNo="0" devices="tripinfo_47_97" vType="DEFAULT_VEHTYPE" speedFactor="0.94" vaporized=""/>
    <tripinfo id="40_86" depart="86.00" departLane="6i_0" departPos="5.10" departSpeed="0.00" departDelay="0.00" arrival="182.00" arrivalLane="7o_0" arrivalPos="492.80" arrivalSpeed="10.83" duration="96.00" routeLength="994.90" waitingTime="4.00" waitingCount="1" stopTime="0.00" timeLoss="28.84" rerouteNo="0" devices="tripinfo_40_86" vType="DEFAULT_VEHTYPE" speedFactor="1.05" vaporized=""/>
    <tripinfo id="41_90" depart="90.00" departLane="6i_0" departPos="5.10" departSpeed="0.00" departDelay="0.00" arrival="185.00" arrivalLane="7o_0" arrivalPos="492.80" arrivalSpeed="9.40" duration="95.00" routeLength="994.90" waitingTime="0.00" waitingCount="0" stopTime="0.00" timeLoss="16.81" rerouteNo="0" devices="tripinfo_41_90" vType="DEFAULT_VEHTYPE" speedFactor="0.91" vaporized=""/>
    <tripinfo id="45_94" depart="94.00" departLane="6i_0" departPos="5.10" departSpeed="0.00" departDelay="0.00" arrival="186.00" arrivalLane="7o_0" arrivalPos="492.80" arrivalSpeed="10.97" duration="92.00" routeLength="994.90" waitingTime="0.00" waitingCount="0" stopTime="0.00" timeLoss="26.84" rerouteNo="0" devices="tripinfo_45_94" vType="DEFAULT_VEHTYPE" speedFactor="1.08" vaporized=""/>
    <tripinfo id="46_95" depart="97.00" departLane="6i_0" departPos="5.10" departSpeed="0.00" departDelay="2.00" arrival="188.00" arrivalLane="7o_0" arrivalPos="492.80" arrivalSpeed="12.37" duration="91.00" routeLength="994.90" waitingTime="0.00" waitingCount="0" stopTime="0.00" timeLoss="30.08" rerouteNo="0" devices="tripinfo_46_95" vType="DEFAULT_VEHTYPE" speedFactor="1.17" vaporized=""/>
    <tripinfo id="49_105" depart="105.00" departLane="6i_0" departPos="5.10" departSpeed="0.00" departDelay="0.00" arrival="190.00" arrivalLane="7o_0" arrivalPos="492.80" arrivalSpeed="11.70" duration="85.00" routeLength="994.90" waitingTime="0.00" waitingCount="0" stopTime="0.00" timeLoss="20.01" rerouteNo="0" devices="tripinfo_49_105" vType="DEFAULT_VEHTYPE" speedFactor="1.10" vaporized=""/>
    <tripinfo id="50_111" depart="111.00" departLane="3i_0" departPos="5.10" departSpeed="0.00" departDelay="0.00" arrival="192.00" arrivalLane="2o_0" arrivalPos="492.80" arrivalSpeed="9.80" duration="81.00" routeLength="994.90" waitingTime="0.00" waitingCount="0" stopTime="0.00" timeLoss="8.10" rerouteNo="0" devices="tripinfo_50_111" vType="DEFAULT_VEHTYPE" speedFactor="0.97" vaporized=""/>
    <tripinfo id="52_116" depart="117.00" departLane="3i_0" departPos="5.10" departSpeed="0.00" departDelay="1.00" arrival="194.00" arrivalLane="2o_0" arrivalPos="492.80" arrivalSpeed="10.57" duration="77.00" routeLength="994.90" waitingTime="0.00" waitingCount="0" stopTime="0.00" timeLoss="9.79" rerouteNo="0" devices="tripinfo_52_116" vType="DEFAULT_VEHTYPE" speedFactor="1.06" vaporized=""/>
    <tripinfo id="54_121" depart="121.00" departLane="3i_0" departPos="5.10" departSpeed="0.00" departDelay="0.00" arrival="195.00" arrivalLane="2o_0" arrivalPos="492.80" arrivalSpeed="11.82" duration="74.00" routeLength="994.90" waitingTime="0.00" waitingCount="0" stopTime="0.00" timeLoss="11.68" rerouteNo="0" devices="tripinfo_54_121" vType="DEFAULT_VEHTYPE" speedFactor="1.14" vaporized=""/>
    <tripinfo id="53_119" depart="121.00" departLane="6i_0" departPos="5.10" departSpeed="0.00" departDelay="2.00" arrival="197.00" arrivalLane="7o_0" arrivalPos="492.80" arrivalSpeed="10.42" duration="76.00" routeLength="994.90" waitingTime="0.00" waitingCount="0" stopTime="0.00" timeLoss="7.43" rerouteNo="0" devices="tripinfo_53_119" vType="DEFAULT_VEHTYPE" speedFactor="1.04" vaporized=""/>
    <tripinfo id="55_126" depart="126.00" departLane="6i_0" departPos="5.10" departSpeed="0.00" departDelay="0.00" arrival="207.00" arrivalLane="7o_0" arrivalPos="492.80" arrivalSpeed="10.20" duration="81.00" routeLength="994.90" waitingTime="0.00" waitingCount="0" stopTime="0.00" timeLoss="7.83" rerouteNo="0" devices="tripinfo_55_126" vType="DEFAULT_VEHTYPE" speedFactor="0.97" vaporized=""/>
    <tripinfo id="59_145" depart="145.00" departLane="2i_0" departPos="5.10" departSpeed="0.00" departDelay="0.00" arrival="222.00" arrivalLane="3o_0" arrivalPos="492.80" arrivalSpeed="10.43" duration="77.00" routeLength="994.90" waitingTime="0.00" waitingCount="0" stopTime="0.00" timeLoss="7.95" rerouteNo="0" devices="tripinfo_59_145" vType="DEFAULT_VEHTYPE" speedFactor="1.03" vaporized=""/>
    <tripinfo id="60_146" depart="146.00" departLane="6i_0" departPos="5.10" departSpeed="0.00" departDelay="0.00" arrival="225.00" arrivalLane="7o_0" arrivalPos="492.80" arrivalSpeed="10.11" duration="79.00" routeLength="994.90" waitingTime="0.00" waitingCount="0" stopTime="0.00" timeLoss="7.50" rerouteNo="0" devices="tripinfo_60_146" vType="DEFAULT_VEHTYPE" speedFactor="1.00" vaporized=""/>
    <tripinfo id="61_148" depart="149.00" departLane="6i_0" departPos="5.10" departSpeed="0.00" departDelay="1.00" arrival="227.00" arrivalLane="7o_0" arrivalPos="492.80" arrivalSpeed="11.06" duration="78.00" routeLength="994.90" waitingTime="0.00" waitingCount="0" stopTime="0.00" timeLoss="9.39" rerouteNo="0" devices="tripinfo_61_148" vType="DEFAULT_VEHTYPE" speedFactor="1.04" vaporized=""/>
    <tripinfo id="62_150" depart="150.00" departLane="2i_0" departPos="5.10" departSpeed="0.00" departDelay="0.00" arrival="228.00" arrivalLane="3o_0" arrivalPos="492.80" arrivalSpeed="11.10" duration="78.00" routeLength="994.90" waitingTime="0.00" waitingCount="0" stopTime="0.00" timeLoss="8.07" rerouteNo="0" devices="tripinfo_62_150" vType="DEFAULT_VEHTYPE" speedFactor="1.02" vaporized=""/>
    <tripinfo id="65_165" depart="165.00" departLane="2i_0" departPos="5.10" departSpeed="0.00" departDelay="0.00" arrival="243.00" arrivalLane="3o_0" arrivalPos="492.80" arrivalSpeed="10.21" duration="78.00" routeLength="994.90" waitingTime="0.00" waitingCount="0" stopTime="0.00" timeLoss="8.23" rerouteNo="0" devices="tripinfo_65_165" vType="DEFAULT_VEHTYPE" speedFactor="1.02" vaporized=""/>
    <tripinfo id="67_167" depart="167.00" departLane="3i_0" departPos="5.10" departSpeed="0.00" departDelay="0.00" arrival="244.00" arrivalLane="2o_0" arrivalPos="492.80" arrivalSpeed="11.14" duration="77.00" routeLength="994.90" waitingTime="0.00" waitingCount="0" stopTime="0.00" timeLoss="8.64" rerouteNo="0" devices="tripinfo_67_167" vType="DEFAULT_VEHTYPE" speedFactor="1.04" vaporized=""/>
    <tripinfo id="70_170" depart="170.00" departLane="2i_0" departPos="5.10" departSpeed="0.00" departDelay="0.00" arrival="245.00" arrivalLane="3o_0" arrivalPos="492.80" arrivalSpeed="13.39" duration="75.00" routeLength="994.90" waitingTime="0.00" waitingCount="0" stopTime="0.00" timeLoss="15.83" rerouteNo="0" devices="tripinfo_70_170" vType="DEFAULT_VEHTYPE" speedFactor="1.21" vaporized=""/>
    <tripinfo id="1_0" depart="0.00" departLane="5i_0" departPos="5.10" departSpeed="0.00" departDelay="0.00" arrival="258.00" arrivalLane="4o_0" arrivalPos="492.80" arrivalSpeed="10.16" duration="258.00" routeLength="1494.90" waitingTime="138.00" waitingCount="1" stopTime="0.00" timeLoss="152.99" rerouteNo="0" devices="tripinfo_1_0" vType="DEFAULT_VEHTYPE" speedFactor="0.92" vaporized=""/>
    <tripinfo id="2_5" depart="5.00" departLane="5i_0" departPos="5.10" departSpeed="0.00" departDelay="0.00" arrival="260.00" arrivalLane="4o_0" arrivalPos="492.80" arrivalSpeed="9.87" duration="255.00" routeLength="1494.90" waitingTime="138.00" waitingCount="1" stopTime="0.00" timeLoss="158.15" rerouteNo="0" devices="tripinfo_2_5" vType="DEFAULT_VEHTYPE" speedFactor="1.00" vaporized=""/>
    <tripinfo id="9_19" depart="19.00" departLane="5i_0" departPos="5.10" departSpeed="0.00" departDelay="0.00" arrival="262.00" arrivalLane="4o_0" arrivalPos="492.80" arrivalSpeed="11.02" duration="243.00" routeLength="1494.90" waitingTime="129.00" waitingCount="1" stopTime="0.00" timeLoss="150.73" rerouteNo="0" devices="tripinfo_9_19" vType="DEFAULT_VEHTYPE" speedFactor="1.05" vaporized=""/>
    <tripinfo id="10_20" depart="22.00" departLane="5i_0" departPos="5.10" departSpeed="0.00" departDelay="2.00" arrival="267.00" arrivalLane="4o_0" arrivalPos="492.80" arrivalSpeed="8.78" duration="245.00" routeLength="1494.90" waitingTime="120.00" waitingCount="1" stopTime="0.00" timeLoss="135.60" rerouteNo="0" devices="tripinfo_10_20" vType="DEFAULT_VEHTYPE" speedFactor="0.88" vaporized=""/>
    <tripinfo id="28_58" depart="58.00" departLane="5i_0" departPos="5.10" departSpeed="0.00" departDelay="0.00" arrival="269.00" arrivalLane="4o_0" arrivalPos="492.80" arrivalSpeed="12.22" duration="211.00" routeLength="1494.90" waitingTime="92.00" waitingCount="1" stopTime="0.00" timeLoss="129.05" rerouteNo="0" devices="tripinfo_28_58" vType="DEFAULT_VEHTYPE" speedFactor="1.19" vaporized=""/>
    <tripinfo id="80_188" depart="188.00" departLane="3i_0" departPos="5.10" departSpeed="0.00" departDelay="0.00" arrival="270.00" arrivalLane="2o_0" arrivalPos="492.80" arrivalSpeed="10.64" duration="82.00" routeLength="994.90" waitingTime="0.00" waitingCount="0" stopTime="0.00" timeLoss="11.93" rerouteNo="0" devices="tripinfo_80_188" vType="DEFAULT_VEHTYPE" speedFactor="1.01" vaporized=""/>
    <tripinfo id="30_65" depart="65.00" departLane="5i_0" departPos="5.10" departSpeed="0.00" departDelay="0.00" arrival="271.00" arrivalLane="4o_0" arrivalPos="492.80" arrivalSpeed="9.13" duration="206.00" routeLength="1494.90" waitingTime="80.00" waitingCount="1" stopTime="0.00" timeLoss="100.15" rerouteNo="0" devices="tripinfo_30_65" vType="DEFAULT_VEHTYPE" speedFactor="0.91" vaporized=""/>
    <tripinfo id="74_179" depart="180.00" departLane="7i_0" departPos="5.10" departSpeed="0.00" departDelay="1.00" arrival="271.00" arrivalLane="6o_0" arrivalPos="492.80" arrivalSpeed="10.49" duration="91.00" routeLength="994.90" waitingTime="8.00" waitingCount="1" stopTime="0.00" timeLoss="21.74" rerouteNo="0" devices="tripinfo_74_179" vType="DEFAULT_VEHTYPE" speedFactor="1.03" vaporized=""/>
    <tripinfo id="75_181" depart="181.00" departLane="2i_0" departPos="5.10" departSpeed="0.00" departDelay="0.00" arrival="275.00" arrivalLane="3o_0" arrivalPos="492.80" arrivalSpeed="9.54" duration="94.00" routeLength="994.90" waitingTime="4.00" waitingCount="1" stopTime="0.00" timeLoss="17.48" rerouteNo="0" devices="tripinfo_75_181" vType="DEFAULT_VEHTYPE" speedFactor="0.93" vaporized=""/>
    <tripinfo id="77_183" depart="186.00" departLane="7i_0" departPos="5.10" departSpeed="0.00" departDelay="3.00" arrival="277.00" arrivalLane="6o_0" arrivalPos="492.80" arrivalSpeed="11.26" duration="91.00" routeLength="994.90" waitingTime="7.00" waitingCount="2" stopTime="0.00" timeLoss="27.37" rerouteNo="0" devices="tripinfo_77_183" vType="DEFAULT_VEHTYPE" speedFactor="1.11" vaporized=""/>
    <tripinfo id="71_173" depart="173.00" departLane="6i_0" departPos="5.10" departSpeed="0.00" departDelay="0.00" arrival="280.00" arrivalLane="7o_0" arrivalPos="492.80" arrivalSpeed="8.75" duration="107.00" routeLength="994.90" waitingTime="11.00" waitingCount="1" stopTime="0.00" timeLoss="23.50" rerouteNo="0" devices="tripinfo_71_173" vType="DEFAULT_VEHTYPE" speedFactor="0.85" vaporized=""/>
    <tripinfo id="72_175" depart="176.00" departLane="6i_0" departPos="5.10" departSpeed="0.00" departDelay="1.00" arrival="282.00" arrivalLane="7o_0" arrivalPos="492.80" arrivalSpeed="11.65" duration="106.00" routeLength="994.90" waitingTime="17.00" waitingCount="2" stopTime="0.00" timeLoss="38.77" rerouteNo="0" devices="tripinfo_72_175" vType="DEFAULT_VEHTYPE" speedFactor="1.06" vaporized=""/>
    <tripinfo id="79_187" depart="187.00" departLane="6i_0" departPos="5.10" departSpeed="0.00" departDelay="0.00" arrival="286.00" arrivalLane="7o_0" arrivalPos="492.80" arrivalSpeed="10.84" duration="99.00" routeLength="994.90" waitingTime="10.00" waitingCount="3" stopTime="0.00" timeLoss="30.84" rerouteNo="0" devices="tripinfo_79_187" vType="DEFAULT_VEHTYPE" speedFactor="1.04" vaporized=""/>
    <tripinfo id="78_186" depart="186.00" departLane="2i_0" departPos="5.10" departSpeed="0.00" departDelay="0.00" arrival="289.00" arrivalLane="3o_0" arrivalPos="492.80" arrivalSpeed="11.38" duration="103.00" routeLength="994.90" waitingTime="18.00" waitingCount="2" stopTime="0.00" timeLoss="36.31" rerouteNo="0" devices="tripinfo_78_186" vType="DEFAULT_VEHTYPE" speedFactor="1.07" vaporized=""/>
    <tripinfo id="82_192" depart="192.00" departLane="6i_0" departPos="5.10" departSpeed="0.00" departDelay="0.00" arrival="289.00" arrivalLane="7o_0" arrivalPos="492.80" arrivalSpeed="10.55" duration="97.00" routeLength="994.90" waitingTime="4.00" waitingCount="1" stopTime="0.00" timeLoss="27.88" rerouteNo="0" devices="tripinfo_82_192" vType="DEFAULT_VEHTYPE" speedFactor="1.03" vaporized=""/>
    <tripinfo id="58_140" depart="140.00" departLane="5i_0" departPos="5.10" departSpeed="0.00" departDelay="0.00" arrival="292.00" arrivalLane="4o_0" arrivalPos="492.80" arrivalSpeed="9.75" duration="152.00" routeLength="1494.90" waitingTime="26.00" waitingCount="1" stopTime="0.00" timeLoss="43.22" rerouteNo="0" devices="tripinfo_58_140" vType="DEFAULT_VEHTYPE" speedFactor="0.89" vaporized=""/>
    <tripinfo id="81_190" depart="191.00" departLane="3i_0" departPos="5.10" departSpeed="0.00" departDelay="1.00" arrival="293.00" arrivalLane="2o_0" arrivalPos="492.80" arrivalSpeed="10.74" duration="102.00" routeLength="994.90" waitingTime="17.00" waitingCount="1" stopTime="0.00" timeLoss="30.23" rerouteNo="0" devices="tripinfo_81_190" vType="DEFAULT_VEHTYPE" speedFactor="0.99" vaporized=""/>
    <tripinfo id="85_207" depart="207.00" departLane="2i_0" departPos="5.10" departSpeed="0.00" departDelay="0.00" arrival="294.00" arrivalLane="3o_0" arrivalPos="492.80" arrivalSpeed="9.92" duration="87.00" routeLength="994.90" waitingTime="2.00" waitingCount="1" stopTime="0.00" timeLoss="15.67" rerouteNo="0" devices="tripinfo_85_207" vType="DEFAULT_VEHTYPE" speedFactor="0.99" vaporized=""/>
    <tripinfo id="83_195" depart="195.00" departLane="7i_0" departPos="5.10" departSpeed="0.00" departDelay="0.00" arrival="295.00" arrivalLane="6o_0" arrivalPos="492.80" arrivalSpeed="9.75" duration="100.00" routeLength="994.90" waitingTime="3.00" waitingCount="2" stopTime="0.00" timeLoss="19.75" rerouteNo="0" devices="tripinfo_83_195" vType="DEFAULT_VEHTYPE" speedFactor="0.89" vaporized=""/>
    <tripinfo id="84_199" depart="199.00" departLane="6i_0" departPos="5.10" departSpeed="0.00" departDelay="0.00" arrival="295.00" arrivalLane="7o_0" arrivalPos="492.80" arrivalSpeed="9.38" duration="96.00" routeLength="994.90" waitingTime="1.00" waitingCount="1" stopTime="0.00" timeLoss="21.05" rerouteNo="0" devices="tripinfo_84_199" vType="DEFAULT_VEHTYPE" speedFactor="0.95" vaporized=""/>
    <tripinfo id="91_233" depart="233.00" departLane="2i_0" departPos="5.10" departSpeed="0.00" departDelay="0.00" arrival="301.00" arrivalLane="3o_0" arrivalPos="492.80" arrivalSpeed="12.57" duration="68.00" routeLength="994.90" waitingTime="0.00" waitingCount="0" stopTime="0.00" timeLoss="8.28" rerouteNo="0" devices="tripinfo_91_233" vType="DEFAULT_VEHTYPE" speedFactor="1.20" vaporized=""/>
    <tripinfo id="87_223" depart="223.00" departLane="6i_0" departPos="5.10" departSpeed="0.00" departDelay="0.00" arrival="304.00" arrivalLane="7o_0" arrivalPos="492.80" arrivalSpeed="10.26" duration="81.00" routeLength="994.90" waitingTime="0.00" waitingCount="0" stopTime="0.00" timeLoss="11.92" rerouteNo="0" devices="tripinfo_87_223" vType="DEFAULT_VEHTYPE" speedFactor="1.03" vaporized=""/>
    <tripinfo id="13_25" depart="25.00" departLane="4i_0" departPos="5.10" departSpeed="0.00" departDelay="0.00" arrival="311.00" arrivalLane="5o_0" arrivalPos="492.80" arrivalSpeed="11.04" duration="286.00" routeLength="1494.90" waitingTime="148.00" waitingCount="2" stopTime="0.00" timeLoss="171.52" rerouteNo="0" devices="tripinfo_13_25" vType="DEFAULT_VEHTYPE" speedFactor="1.02" vaporized=""/>
    <tripinfo id="89_230" depart="230.00" departLane="3i_0" departPos="5.10" departSpeed="0.00" departDelay="0.00" arrival="313.00" arrivalLane="2o_0" arrivalPos="492.80" arrivalSpeed="10.29" duration="83.00" routeLength="994.90" waitingTime="0.00" waitingCount="0" stopTime="0.00" timeLoss="8.05" rerouteNo="0" devices="tripinfo_89_230" vType="DEFAULT_VEHTYPE" speedFactor="0.95" vaporized=""/>